LAMMPS data file via write_data, version 5 Jun 2019, timestep = 100021

11125 atoms
10 atom types
11000 bonds
6 bond types
20750 angles
11 angle types
28000 dihedrals
14 dihedral types
500 impropers
1 improper types

2.3927624203231908e+01 7.2072375796766750e+01 xlo xhi
2.3927624203231908e+01 7.2072375796766750e+01 ylo yhi
2.3927624203231908e+01 7.2072375796766750e+01 zlo zhi

Masses

1 12.011
2 1.008
3 12.011
4 12.011
5 12.011
6 1.008
7 1.008
8 12.011
9 15.999
10 15.999

Atoms # full

139 2 5 -1.4799999999999999e-01 3.0273756669152316e+01 2.9394559748194784e+01 2.8593742485867136e+01 0 0 0
149 2 7 7.3999999999999996e-02 2.9360594140402561e+01 2.8938359792227125e+01 2.8986550151232898e+01 0 0 0
140 2 5 -1.4799999999999999e-01 3.0058792027505433e+01 3.0235730368347610e+01 2.7318979656720330e+01 0 0 0
138 2 5 -1.4799999999999999e-01 3.1323045278631753e+01 2.8261038774543845e+01 2.8569937107927572e+01 0 0 0
1853 21 5 -1.4799999999999999e-01 3.0755021643764486e+01 2.4393396702458730e+01 2.8622914112165830e+01 0 1 0
29 1 5 -1.4799999999999999e-01 2.5655199077317761e+01 2.7160346134409259e+01 2.6727331124732721e+01 0 0 0
1854 21 5 -1.4799999999999999e-01 2.9402687146534095e+01 2.4956942501469065e+01 2.8428649585069873e+01 0 1 0
1865 21 7 7.3999999999999996e-02 2.9374925792970338e+01 2.5520742431968085e+01 2.7557388184179739e+01 0 1 0
1866 21 7 7.3999999999999996e-02 2.9177380903941632e+01 2.5686997652860356e+01 2.9203373618867129e+01 0 1 0
146 2 7 7.3999999999999996e-02 3.0885290907034260e+01 2.7419699458545590e+01 2.7964221530212850e+01 0 0 0
39 1 7 7.3999999999999996e-02 2.5628039296921642e+01 2.8260958630526741e+01 2.6925600166453723e+01 0 0 0
31 1 4 -2.2200000000000000e-01 2.7771530479040131e+01 2.7422915299962057e+01 2.5264403846069147e+01 0 0 0
150 2 7 7.3999999999999996e-02 2.9839416177014499e+01 2.9563725906839700e+01 2.6494154624180794e+01 0 0 0
27 1 5 -1.4799999999999999e-01 2.5594784850903704e+01 2.6983861539408359e+01 2.9266223999250656e+01 0 0 0
35 1 7 7.3999999999999996e-02 2.6651666888483035e+01 2.7092155966077875e+01 2.9321824714900107e+01 0 0 0
148 2 7 7.3999999999999996e-02 3.0561622862513929e+01 3.0134728643743486e+01 2.9342051837058811e+01 0 0 0
151 2 7 7.3999999999999996e-02 3.1038134150590942e+01 3.0715673882478164e+01 2.7062419925718146e+01 0 0 0
28 1 5 -1.4799999999999999e-01 2.4960067858266282e+01 2.6511466839767053e+01 2.7919696695734800e+01 0 0 0
30 1 5 -1.4799999999999999e-01 2.7164971400125868e+01 2.6856351456469184e+01 2.6549201506476773e+01 0 0 0
38 1 7 7.3999999999999996e-02 2.5032684160202788e+01 2.5428690344855124e+01 2.7797018020950283e+01 0 0 0
42 1 7 7.3999999999999996e-02 2.7741688171385437e+01 2.7149408666924245e+01 2.7425476610376279e+01 0 0 0
41 1 7 7.3999999999999996e-02 2.7366474506954997e+01 2.5736040397628660e+01 2.6493386787237647e+01 0 0 0
45 1 6 7.3999999999999996e-02 2.7175347343651040e+01 2.8118090699287691e+01 2.4736575952783785e+01 0 0 0
10814 122 6 7.3999999999999996e-02 3.1290963650916549e+01 2.8274020827481287e+01 2.4359673575449481e+01 0 1 1
141 2 5 -1.4799999999999999e-01 2.8813374669391163e+01 3.1210015981428334e+01 2.7493992380051623e+01 0 0 0
142 2 4 -2.2200000000000000e-01 2.7499536091811851e+01 3.0444791941060728e+01 2.7508566968526928e+01 0 0 0
155 2 6 7.3999999999999996e-02 2.7267404418326223e+01 3.0039357769716034e+01 2.6561678908494429e+01 0 0 0
154 2 6 7.3999999999999996e-02 2.7538920549011706e+01 2.9610916047170349e+01 2.8239183950856965e+01 0 0 0
1868 21 6 7.3999999999999996e-02 2.7316361841356340e+01 2.4404499013548961e+01 2.8411524900739270e+01 0 1 0
156 2 6 7.3999999999999996e-02 2.6634308054438531e+01 3.1041702270601913e+01 2.7728778614604465e+01 0 0 0
9264 105 5 -1.4799999999999999e-01 2.4249781845717184e+01 3.0756044901967769e+01 2.4557391581242506e+01 1 0 1
175 2 7 7.3999999999999996e-02 2.4331644744748154e+01 3.1321875419986679e+01 2.9305715815103746e+01 0 0 0
36 1 7 7.3999999999999996e-02 2.5240344396416624e+01 2.7998231251253149e+01 2.9575720041022127e+01 0 0 0
9275 105 7 7.3999999999999996e-02 2.5150644644418151e+01 3.0157945509025140e+01 2.4222613725734540e+01 1 0 1
43 1 6 7.3999999999999996e-02 2.8009651206732794e+01 2.6533170787631907e+01 2.4686229216377932e+01 0 0 0
1864 21 7 7.3999999999999996e-02 3.1567266447499286e+01 2.5126891975474667e+01 2.8339388000113530e+01 0 1 0
10813 122 6 7.3999999999999996e-02 3.1448252871218223e+01 3.0042087160066998e+01 2.4156284801909635e+01 0 1 1
51 1 5 -1.4799999999999999e-01 2.4065740864047164e+01 2.4290088715989100e+01 2.4305575188790012e+01 0 0 0
152 2 7 7.3999999999999996e-02 2.8814511212345767e+01 3.1947598941431014e+01 2.6685372177044613e+01 0 0 0
40 1 7 7.3999999999999996e-02 2.5108069551182815e+01 2.7011879430253046e+01 2.5813443591066640e+01 0 0 0
153 2 7 7.3999999999999996e-02 2.8912697981626479e+01 3.1777145911165409e+01 2.8461500036572538e+01 0 0 0
62 1 7 7.3999999999999996e-02 2.4756449928596364e+01 2.5078675253721656e+01 2.4494851751121217e+01 0 0 0
2693 31 6 7.3999999999999996e-02 3.5887670841649907e+01 3.8327060659583502e+01 3.2027479888718005e+01 0 0 0
8988 101 6 7.3999999999999996e-02 2.7481301666302290e+01 3.1333713607320547e+01 2.4452264424715125e+01 0 0 1
44 1 6 7.3999999999999996e-02 2.8767161634580393e+01 2.7818133536303126e+01 2.5595643675484403e+01 0 0 0
4018 46 7 7.3999999999999996e-02 3.9931054089266091e+01 3.0619949082453232e+01 3.4274672598715981e+01 0 1 0
9298 105 7 7.3999999999999996e-02 2.9851556407108895e+01 2.4718092635899112e+01 2.5474171234346574e+01 1 0 1
9286 105 5 -1.4799999999999999e-01 3.0343964091201599e+01 2.3962554435707858e+01 2.4870534910466287e+01 1 0 1
9069 102 7 7.3999999999999996e-02 3.7030713145677339e+01 3.0278104800046052e+01 2.4112922687179189e+01 0 0 1
147 2 7 7.3999999999999996e-02 3.2293693972890445e+01 2.8527521809242945e+01 2.8075368913070239e+01 0 0 0
1932 22 7 7.3999999999999996e-02 3.5354753967573856e+01 2.5693373251576116e+01 2.5730861950817509e+01 0 1 0
9068 102 7 7.3999999999999996e-02 3.7831769784237942e+01 3.0017700614603381e+01 2.5717688366641880e+01 0 0 1
9060 102 5 -1.4799999999999999e-01 3.7071618022666257e+01 3.0575844897958909e+01 2.5186186952757723e+01 0 0 1
1921 22 5 -1.4799999999999999e-01 3.5395754815186081e+01 2.6219661555492333e+01 2.6665595461741908e+01 0 1 0
1922 22 4 -2.2200000000000000e-01 3.4043042556353214e+01 2.5882075037004160e+01 2.7342518242893959e+01 0 1 0
1933 22 7 7.3999999999999996e-02 3.5669760092165788e+01 2.7327277812718258e+01 2.6556879691873963e+01 0 1 0
1920 22 5 -1.4799999999999999e-01 3.6645674059338397e+01 2.5681789022951548e+01 2.7409705175308542e+01 0 1 0
9061 102 5 -1.4799999999999999e-01 3.5711711543842689e+01 3.0352292339480258e+01 2.5933730318309639e+01 0 0 1
9070 102 7 7.3999999999999996e-02 3.5202057774064116e+01 2.9488169417307063e+01 2.5530684150534974e+01 0 0 1
1935 22 6 7.3999999999999996e-02 3.3330632612248998e+01 2.5589591012512109e+01 2.6607692894457195e+01 0 1 0
1931 22 7 7.3999999999999996e-02 3.6714133967303383e+01 2.4599214607134478e+01 2.7518731379015613e+01 0 1 0
1930 22 7 7.3999999999999996e-02 3.6592814112469185e+01 2.5923390826612902e+01 2.8467599807390741e+01 0 1 0
9071 102 7 7.3999999999999996e-02 3.5163489402311278e+01 3.1153820352139324e+01 2.5462239058055264e+01 0 0 1
9062 102 5 -1.4799999999999999e-01 3.5814931038063236e+01 3.0395911668765205e+01 2.7464300671071474e+01 0 0 1
1936 22 6 7.3999999999999996e-02 3.3678812595375874e+01 2.6766401396934427e+01 2.7856841103852716e+01 0 1 0
1928 22 7 7.3999999999999996e-02 3.8095162057883755e+01 2.7264578473916053e+01 2.6676460369295924e+01 0 1 0
1919 22 5 -1.4799999999999999e-01 3.7956342232211881e+01 2.6141796322677308e+01 2.6809305537649902e+01 0 1 0
1934 22 6 7.3999999999999996e-02 3.4073688071788439e+01 2.5081542732001722e+01 2.8088219915986585e+01 0 1 0
9063 102 5 -1.4799999999999999e-01 3.4512011913491342e+01 3.0728955068006734e+01 2.8113618947346851e+01 0 0 1
9031 102 7 7.3999999999999996e-02 3.7801809731564767e+01 2.8210188712941093e+01 2.9275896892436169e+01 0 0 1
9025 102 7 7.3999999999999996e-02 3.8646429879754201e+01 3.0272175833934689e+01 2.8225976911309761e+01 0 0 1
9074 102 7 7.3999999999999996e-02 3.3614424850047207e+01 3.0222097979302660e+01 2.7718348853097464e+01 0 0 1
9016 102 5 -1.4799999999999999e-01 3.9698543422918263e+01 3.0003081016617003e+01 2.8177665529154801e+01 0 0 1
9075 102 7 7.3999999999999996e-02 3.4286445334722423e+01 3.1803180505101562e+01 2.8029423851651810e+01 0 0 1
10809 122 7 7.3999999999999996e-02 3.3525170635996695e+01 2.8481255405159693e+01 2.4031810224945598e+01 0 1 1
1926 22 7 7.3999999999999996e-02 3.7515542817476302e+01 2.5535815366619207e+01 2.4612547142949420e+01 0 1 0
1918 22 5 -1.4799999999999999e-01 3.8278590151964671e+01 2.5384151228757645e+01 2.5427598288516435e+01 0 1 0
9301 105 6 7.3999999999999996e-02 3.2404851853282779e+01 2.4853754304871828e+01 2.4704919994536340e+01 1 0 1
9073 102 7 7.3999999999999996e-02 3.6253713987350658e+01 2.9566243103720545e+01 2.7958182792561658e+01 0 0 1
9072 102 7 7.3999999999999996e-02 3.6548235969540023e+01 3.1229487733411641e+01 2.7634920832963005e+01 0 0 1
2683 31 7 7.3999999999999996e-02 3.2753447455999378e+01 3.7280912294627335e+01 3.4766050127664585e+01 0 0 0
1929 22 7 7.3999999999999996e-02 3.8702929753700566e+01 2.5960622661141169e+01 2.7538961493068179e+01 0 1 0
9024 102 7 7.3999999999999996e-02 3.9895445640100135e+01 2.9338976594176668e+01 2.7347268420189756e+01 0 0 1
191 3 7 7.3999999999999996e-02 3.9887500473129990e+01 2.8774174888716608e+01 2.5196876724390393e+01 0 0 0
9064 102 4 -2.2200000000000000e-01 3.4481084689147110e+01 3.0497308991009543e+01 2.9581860268815511e+01 0 0 1
9076 102 6 7.3999999999999996e-02 3.4445484231064889e+01 2.9388797805963243e+01 2.9829123216912578e+01 0 0 1
1927 22 7 7.3999999999999996e-02 3.9176305584837763e+01 2.5729957285811160e+01 2.5178839530656607e+01 0 1 0
177 2 6 7.3999999999999996e-02 2.5019916379992715e+01 3.3639785001350525e+01 3.0065842210112084e+01 0 0 0
9055 102 6 7.3999999999999996e-02 3.0875754525813058e+01 3.3819880989710725e+01 2.4233074920473310e+01 0 0 1
819 10 7 7.3999999999999996e-02 2.4289721364255961e+01 3.6939124858817102e+01 2.7025407747379305e+01 1 0 0
806 10 5 -1.4799999999999999e-01 2.5143225321098935e+01 3.9642789625112371e+01 2.6314745842013185e+01 1 0 0
809 10 5 -1.4799999999999999e-01 2.5308382214959263e+01 3.6588605052816959e+01 2.8776359468856587e+01 1 0 0
821 10 7 7.3999999999999996e-02 2.5230333507151528e+01 3.5579335798497901e+01 2.8664731352430586e+01 1 0 0
807 10 5 -1.4799999999999999e-01 2.5102737564587809e+01 3.8942753420317757e+01 2.7676592564789605e+01 1 0 0
818 10 7 7.3999999999999996e-02 2.6115302694274227e+01 3.7091237387393484e+01 2.6953180129253880e+01 1 0 0
817 10 7 7.3999999999999996e-02 2.5993230136509307e+01 3.9371329944724408e+01 2.8246812928393119e+01 1 0 0
844 10 6 7.3999999999999996e-02 3.0053912328446007e+01 3.5639488264100983e+01 2.7072156171576228e+01 1 0 0
831 10 5 -1.4799999999999999e-01 3.0780015583060049e+01 3.7515329011210724e+01 2.7714709212713398e+01 1 0 0
832 10 4 -2.2200000000000000e-01 2.9713733563144707e+01 3.6665919221926679e+01 2.7036468889382718e+01 1 0 0
846 10 6 7.3999999999999996e-02 2.8672301971636021e+01 3.6688701942235276e+01 2.7451416848804516e+01 1 0 0
843 10 7 7.3999999999999996e-02 3.1725138534815702e+01 3.7344818274439056e+01 2.7170870011300195e+01 1 0 0
845 10 6 7.3999999999999996e-02 2.9732983699986228e+01 3.7049692678719524e+01 2.6005179409455550e+01 1 0 0
830 10 5 -1.4799999999999999e-01 3.0388520943163108e+01 3.9003315909279436e+01 2.7751945693723044e+01 1 0 0
808 10 5 -1.4799999999999999e-01 2.5189072368687402e+01 3.7362423716803441e+01 2.7494391872262774e+01 1 0 0
842 10 7 7.3999999999999996e-02 3.0980986652934586e+01 3.7312050099038402e+01 2.8681149633381452e+01 1 0 0
820 10 7 7.3999999999999996e-02 2.6290032688713033e+01 3.6555219247128974e+01 2.9214820437934058e+01 1 0 0
9056 102 6 7.3999999999999996e-02 3.0698206798963533e+01 3.3601948343714376e+01 2.5964081438028082e+01 0 0 1
811 10 9 -5.5000000000000004e-01 2.7387221607786515e+01 3.8855677052213565e+01 2.5759504357910078e+01 1 0 0
840 10 7 7.3999999999999996e-02 2.9863916702158953e+01 3.9165697137277093e+01 2.6783398676781346e+01 1 0 0
9042 102 4 -2.2200000000000000e-01 3.1066608954744133e+01 3.3129761442760547e+01 2.5057905599360648e+01 0 0 1
814 10 7 7.3999999999999996e-02 2.4558725150560409e+01 3.9122722775860680e+01 2.5572493550440285e+01 1 0 0
805 10 8 7.5000000000000000e-01 2.6575944781093082e+01 3.9699347894569499e+01 2.5609492502180856e+01 1 0 0
8940 101 7 7.3999999999999996e-02 2.6772837616267982e+01 3.5498524320728976e+01 2.4136074633277158e+01 0 0 1
816 10 7 7.3999999999999996e-02 2.4190542577521470e+01 3.9157348826943746e+01 2.8269191141426425e+01 1 0 0
9265 105 4 -2.2200000000000000e-01 2.4505072598126674e+01 3.2291108865914595e+01 2.4601798453067172e+01 1 0 1
9287 105 4 -2.2200000000000000e-01 3.1912892076910012e+01 2.3949499743399166e+01 2.5108483282014696e+01 1 0 1
841 10 7 7.3999999999999996e-02 2.9669099194709066e+01 3.9156237370775713e+01 2.8571409522539547e+01 1 0 0
9279 105 6 7.3999999999999996e-02 2.5184676628921178e+01 3.2586933084107237e+01 2.5354397451829644e+01 1 0 1
9054 102 6 7.3999999999999996e-02 3.0419699317222470e+01 3.2227077886762750e+01 2.4961533936932529e+01 0 0 1
810 10 4 -2.2200000000000000e-01 2.4179376124228881e+01 3.6853770737254756e+01 2.9759441376845157e+01 1 0 0
8993 102 8 7.5000000000000000e-01 3.9549068157503577e+01 3.7656901745191334e+01 2.9300391808741466e+01 0 0 1
1068 12 6 7.3999999999999996e-02 3.5250936539396548e+01 3.9561538462499080e+01 2.9867782550093548e+01 0 0 0
9052 102 7 7.3999999999999996e-02 3.2628319726018304e+01 3.2060826038411015e+01 2.5998662856209535e+01 0 0 1
8999 102 9 -5.5000000000000004e-01 3.9708819077934024e+01 3.8406149374489914e+01 2.8312074586339570e+01 0 0 1
1067 12 6 7.3999999999999996e-02 3.4545615256129615e+01 3.8877786974056015e+01 2.8434353530108289e+01 0 0 0
9048 102 7 7.3999999999999996e-02 3.2212462123710772e+01 3.5248083348327164e+01 2.6910304140868334e+01 0 0 1
9043 102 9 -5.5000000000000004e-01 3.4711747963004676e+01 3.4056981137295800e+01 2.9148101896552141e+01 0 0 1
9059 102 8 7.5000000000000000e-01 3.7520236503959417e+01 3.1935201320204055e+01 2.5127998124287821e+01 0 0 1
9065 102 9 -5.5000000000000004e-01 3.7281378066000123e+01 3.2662934755010170e+01 2.4189771666599896e+01 0 0 1
867 10 6 7.3999999999999996e-02 3.3513793536433937e+01 3.6803274859178245e+01 2.4987333580021062e+01 1 0 0
9041 102 5 -1.4799999999999999e-01 3.2511247308426995e+01 3.2778024308289346e+01 2.5154556165752055e+01 0 0 1
9050 102 7 7.3999999999999996e-02 3.4524024073956852e+01 3.3772560681333225e+01 2.5324007517601913e+01 0 0 1
9051 102 7 7.3999999999999996e-02 3.3303975689153191e+01 3.4678502512187848e+01 2.4764193721475753e+01 0 0 1
9040 102 5 -1.4799999999999999e-01 3.3461470958722202e+01 3.3917419996077911e+01 2.5481505840498819e+01 0 0 1
8992 102 10 -4.5000000000000001e-01 3.9265633468928328e+01 3.6330441035361247e+01 2.9134184329584663e+01 0 0 1
9058 102 10 -4.5000000000000001e-01 3.8154584043713335e+01 3.2366345060741601e+01 2.6296259348106425e+01 0 0 1
8991 102 3 1.9000000000000000e-01 3.9161799572507967e+01 3.5760264124715057e+01 2.7828111958763895e+01 0 0 1
9067 102 2 2.9999999999999999e-02 3.9310936527330526e+01 3.3866164449896488e+01 2.5764249958152377e+01 0 0 1
9039 102 5 -1.4799999999999999e-01 3.3139209156585693e+01 3.4615628688525177e+01 2.6880101536681188e+01 0 0 1
9038 102 5 -1.4799999999999999e-01 3.4269277611158927e+01 3.5577444509225451e+01 2.7357417156418617e+01 0 0 1
9046 102 7 7.3999999999999996e-02 3.4869995048697973e+01 3.5868929798662279e+01 2.6521651768039902e+01 0 0 1
9066 102 2 2.9999999999999999e-02 3.7674416291131571e+01 3.4281635965995775e+01 2.6017852546868752e+01 0 0 1
9037 102 8 7.5000000000000000e-01 3.5150245191130850e+01 3.4883863935364417e+01 2.8353746115071143e+01 0 0 1
9057 102 3 1.9000000000000000e-01 3.8528047769720018e+01 3.3725537628758843e+01 2.6426786105427677e+01 0 0 1
9044 102 2 2.9999999999999999e-02 3.7129775151395343e+01 3.3093329161776936e+01 2.8629857108349636e+01 0 0 1
9035 102 3 1.9000000000000000e-01 3.7444529045533514e+01 3.4128649898582459e+01 2.8722880496249317e+01 0 0 1
8990 102 1 0.0000000000000000e+00 3.8761617832981045e+01 3.4309988268041295e+01 2.7857167750407445e+01 0 0 1
9001 102 2 2.9999999999999999e-02 3.8436816773727358e+01 3.6411114629249816e+01 2.7263841912970467e+01 0 0 1
9036 102 10 -4.5000000000000001e-01 3.6433230209416905e+01 3.4986194565491544e+01 2.8081640144630484e+01 0 0 1
9045 102 2 2.9999999999999999e-02 3.7500839952390521e+01 3.4477509499540403e+01 2.9749139368156335e+01 0 0 1
9049 102 7 7.3999999999999996e-02 3.3020683426194353e+01 3.3855489175995203e+01 2.7648070327883111e+01 0 0 1
9047 102 7 7.3999999999999996e-02 3.3882458178810488e+01 3.6454189470331528e+01 2.7896109323701115e+01 0 0 1
1066 12 6 7.3999999999999996e-02 3.6065244748042559e+01 3.8255096288842985e+01 2.9004953410448522e+01 0 0 0
9014 102 10 -4.5000000000000001e-01 3.9832565933994772e+01 3.2309994292589288e+01 2.8719170286843315e+01 0 0 1
1054 12 4 -2.2200000000000000e-01 3.5469067868364547e+01 3.9174123618420950e+01 2.8915953591338056e+01 0 0 0
9053 102 7 7.3999999999999996e-02 3.2788564851128115e+01 3.2239753692720271e+01 2.4260009932021632e+01 0 0 1
1065 12 7 7.3999999999999996e-02 3.6414128804313776e+01 3.9629919439323146e+01 2.7091884128479570e+01 0 0 0
838 10 7 7.3999999999999996e-02 3.2096214622174585e+01 3.9674080754360425e+01 2.8709346717872364e+01 1 0 0
854 10 4 -2.2200000000000000e-01 3.3145211797446976e+01 3.7514402110955345e+01 2.4226346680474709e+01 1 0 0
868 10 6 7.3999999999999996e-02 3.2218381097967693e+01 3.7949274792134190e+01 2.4526527593553251e+01 1 0 0
839 10 7 7.3999999999999996e-02 3.2214211438412420e+01 3.9965832987213815e+01 2.6956215959351027e+01 1 0 0
866 10 6 7.3999999999999996e-02 3.3999713474278906e+01 3.8301269159821693e+01 2.4174050449471174e+01 1 0 0
162 2 5 -1.4799999999999999e-01 2.4619994468622700e+01 3.1314145086713552e+01 3.1452242216061602e+01 0 0 0
25 1 10 -4.5000000000000001e-01 2.5840545242335658e+01 2.4840553554121918e+01 3.0150025564033985e+01 0 0 0
171 2 7 7.3999999999999996e-02 2.4958725090693591e+01 2.9100007871995420e+01 3.1026028228678612e+01 0 0 0
95 2 5 -1.4799999999999999e-01 2.5410630443409822e+01 2.4281583345019222e+01 3.5751654311025135e+01 0 0 0
163 2 5 -1.4799999999999999e-01 2.3985658623941831e+01 3.1842550830299672e+01 3.0141132412815836e+01 0 0 0
161 2 5 -1.4799999999999999e-01 2.4382078147401852e+01 2.9810098110026100e+01 3.1686846420299474e+01 0 0 0
168 2 7 7.3999999999999996e-02 2.4337130068752462e+01 3.0011747816558056e+01 3.4006945823008635e+01 0 0 0
26 1 8 7.5000000000000000e-01 2.5369633103806908e+01 2.6047541580567312e+01 3.0395866020741416e+01 0 0 0
137 2 8 7.5000000000000000e-01 3.1503975952603511e+01 2.7679457821154728e+01 2.9939579745900755e+01 0 0 0
1861 21 7 7.3999999999999996e-02 3.0456606760543046e+01 2.4430613223689988e+01 3.0877385652885955e+01 0 1 0
136 2 10 -4.5000000000000001e-01 3.0403005882477643e+01 2.7834812301327588e+01 3.0685128350536900e+01 0 0 0
99 2 9 -5.5000000000000004e-01 2.8121803887742146e+01 2.4747190255346702e+01 3.4808047648721306e+01 0 0 0
169 2 7 7.3999999999999996e-02 2.4275548279884152e+01 2.8422511782891259e+01 3.3332500000545288e+01 0 0 0
159 2 8 7.5000000000000000e-01 2.6259341601274045e+01 2.9263691969550873e+01 3.3327273231996763e+01 0 0 0
93 2 8 7.5000000000000000e-01 2.7228056503751951e+01 2.5464348872262960e+01 3.4389601581605071e+01 0 0 0
100 2 2 2.9999999999999999e-02 2.7939727449429668e+01 2.6394714202551615e+01 3.1383955017356627e+01 0 0 0
92 2 10 -4.5000000000000001e-01 2.7237443552512151e+01 2.6112974412756465e+01 3.3270653166998599e+01 0 0 0
91 2 3 1.9000000000000000e-01 2.8349581962857535e+01 2.6325771812121260e+01 3.2413234588669901e+01 0 0 0
157 2 3 1.9000000000000000e-01 2.8290058405258378e+01 2.8938659157946613e+01 3.2126972982886357e+01 0 0 0
158 2 10 -4.5000000000000001e-01 2.6865550259995814e+01 2.8901221795506721e+01 3.2241477687467125e+01 0 0 0
167 2 2 2.9999999999999999e-02 2.8506031146232218e+01 2.9013211605366841e+01 3.1046803757267195e+01 0 0 0
166 2 2 2.9999999999999999e-02 2.8622940053231822e+01 2.9858206681756059e+01 3.2614000436001994e+01 0 0 0
90 2 1 0.0000000000000000e+00 2.9012051528131384e+01 2.7713078485612790e+01 3.2723310564002219e+01 0 0 0
101 2 2 2.9999999999999999e-02 2.9158414030619578e+01 2.5588530268294328e+01 3.2573052327331943e+01 0 0 0
113 2 3 1.9000000000000000e-01 2.9284587635752835e+01 2.7942218280687349e+01 3.4243682480931000e+01 0 0 0
114 2 10 -4.5000000000000001e-01 2.9930686037264312e+01 2.6775955379832777e+01 3.4720651409995845e+01 0 0 0
135 2 3 1.9000000000000000e-01 3.0471429792243232e+01 2.7773614317933674e+01 3.2091016763173450e+01 0 0 0
160 2 5 -1.4799999999999999e-01 2.4754500709898053e+01 2.9414860956026452e+01 3.3127295916433155e+01 0 0 0
165 2 9 -5.5000000000000004e-01 2.6833160891375904e+01 2.9634391433987705e+01 3.4342471502387539e+01 0 0 0
144 2 2 2.9999999999999999e-02 3.1084395041759592e+01 2.8600757876871672e+01 3.2389326828464974e+01 0 0 0
102 2 7 7.3999999999999996e-02 2.5074164428757868e+01 2.5727603785379753e+01 3.4153423527030959e+01 0 0 0
122 2 2 2.9999999999999999e-02 2.9863736919801497e+01 2.8836811821185375e+01 3.4426995271542744e+01 0 0 0
123 2 2 2.9999999999999999e-02 2.8417646317318429e+01 2.7981125012373273e+01 3.4884137225246022e+01 0 0 0
2747 31 2 2.9999999999999999e-02 3.1117332410614342e+01 3.0872473482885859e+01 3.4136790128309215e+01 0 0 0
94 2 5 -1.4799999999999999e-01 2.5857222892370626e+01 2.5579315571625095e+01 3.4987218164642726e+01 0 0 0
145 2 2 2.9999999999999999e-02 3.1015933012929267e+01 2.6884765168829766e+01 3.2398025064722148e+01 0 0 0
2746 31 9 -5.5000000000000004e-01 3.0312118308145855e+01 3.1115177105134645e+01 3.1717789953309740e+01 0 0 0
115 2 8 7.5000000000000000e-01 3.1169697810411328e+01 2.6926584506221907e+01 3.5234109363721274e+01 0 0 0
32 1 9 -5.5000000000000004e-01 2.4784446351880653e+01 2.6429036813711932e+01 3.1401659098540748e+01 0 0 0
2748 31 2 2.9999999999999999e-02 2.9545669372364195e+01 3.1601136746609896e+01 3.4323602301406240e+01 0 0 0
2738 31 3 1.9000000000000000e-01 3.0613948053555220e+01 3.1794333161784060e+01 3.4315740021175017e+01 0 0 0
172 2 7 7.3999999999999996e-02 2.5630340681152902e+01 3.1599180127045152e+01 3.1480387022990307e+01 0 0 0
121 2 9 -5.5000000000000004e-01 3.1605030419182352e+01 2.7995798333266180e+01 3.5763389949185481e+01 0 0 0
103 2 7 7.3999999999999996e-02 2.5859111793506305e+01 2.6430097496906452e+01 3.5712766137102420e+01 0 0 0
116 2 5 -1.4799999999999999e-01 3.1830339595179865e+01 2.5575719385635939e+01 3.5550285150738219e+01 0 0 0
33 1 2 2.9999999999999999e-02 2.5335117295963819e+01 2.4064965245857088e+01 3.2013476276663170e+01 0 0 0
124 2 7 7.3999999999999996e-02 3.1054321901003831e+01 2.4858957643623459e+01 3.5828887708994735e+01 0 0 0
4061 46 2 2.9999999999999999e-02 3.8096705621376408e+01 2.4217621411189711e+01 3.5095324297442147e+01 0 1 0
132 2 6 7.3999999999999996e-02 3.6616235863880739e+01 2.5040536087637086e+01 3.2493843155569337e+01 0 0 0
134 2 6 7.3999999999999996e-02 3.6167331222046514e+01 2.4921523935511296e+01 3.4100067157806699e+01 0 0 0
2706 31 7 7.3999999999999996e-02 3.4433286502054152e+01 2.9065035042962620e+01 3.4847492011701632e+01 0 0 0
2695 31 10 -4.5000000000000001e-01 3.3051204798142138e+01 3.1169546517020517e+01 3.5714362311142878e+01 0 0 0
2708 31 7 7.3999999999999996e-02 3.6989914760076452e+01 2.9624032813180072e+01 3.4830596319990846e+01 0 0 0
2698 31 5 -1.4799999999999999e-01 3.6275416895034681e+01 3.0263968063276295e+01 3.5319488518257984e+01 0 0 0
1859 21 7 7.3999999999999996e-02 3.3011989096892762e+01 2.4399413587505467e+01 2.9949804948301811e+01 0 1 0
4007 46 3 1.9000000000000000e-01 3.9394316806796922e+01 2.6718289755113123e+01 3.4001962689248337e+01 0 1 0
9077 102 6 7.3999999999999996e-02 3.3576162999335935e+01 3.0963437605593452e+01 2.9972019024466071e+01 0 0 1
9018 102 5 -1.4799999999999999e-01 3.9852841938154299e+01 2.8070664544578118e+01 2.9954444451046232e+01 0 0 1
126 2 7 7.3999999999999996e-02 3.2078132346648445e+01 2.4964734591921140e+01 3.3560064381335799e+01 0 0 0
2707 31 7 7.3999999999999996e-02 3.6503450506692786e+01 3.1314160408852764e+01 3.5135744396980641e+01 0 0 0
130 2 7 7.3999999999999996e-02 3.5131637950879608e+01 2.7093220750835389e+01 3.2694728149528544e+01 0 0 0
131 2 7 7.3999999999999996e-02 3.4219911380484653e+01 2.5873260431128816e+01 3.2007741640269003e+01 0 0 0
9030 102 7 7.3999999999999996e-02 3.8018777258829310e+01 2.6804012253011784e+01 3.0272925007337211e+01 0 0 1
9034 102 6 7.3999999999999996e-02 3.7691136853693621e+01 2.9723565962139180e+01 3.1316713242961420e+01 0 0 1
143 2 9 -5.5000000000000004e-01 3.2584888600661358e+01 2.7324825462940293e+01 3.0357470227904585e+01 0 0 0
9032 102 6 7.3999999999999996e-02 3.7762868738593426e+01 2.8354745627495120e+01 3.2387208137845931e+01 0 0 1
119 2 5 -1.4799999999999999e-01 3.4686798640790506e+01 2.6039957682849245e+01 3.2939415602027402e+01 0 0 0
9019 102 5 -1.4799999999999999e-01 3.8233719009756172e+01 2.7896239291342521e+01 3.0210256990861524e+01 0 0 1
2696 31 8 7.5000000000000000e-01 3.3860813114264836e+01 3.1210453126387598e+01 3.4623184358954639e+01 0 0 0
117 2 5 -1.4799999999999999e-01 3.2745581419981640e+01 2.5183332055870004e+01 3.4420506901966156e+01 0 0 0
4017 46 2 2.9999999999999999e-02 3.8547216888658014e+01 2.6577968844354267e+01 3.3377492752980714e+01 0 1 0
120 2 4 -2.2200000000000000e-01 3.5739111431051967e+01 2.4953452389379709e+01 3.3141625004904469e+01 0 0 0
118 2 5 -1.4799999999999999e-01 3.3740112865198626e+01 2.6339927700292943e+01 3.4057253473122600e+01 0 0 0
129 2 7 7.3999999999999996e-02 3.3282571016738984e+01 2.7245666656929210e+01 3.3816443204112282e+01 0 0 0
2705 31 7 7.3999999999999996e-02 3.5024973893741745e+01 2.9877670440076226e+01 3.3511833977264423e+01 0 0 0
128 2 7 7.3999999999999996e-02 3.4370983820848679e+01 2.6532856697853362e+01 3.4922752431515633e+01 0 0 0
9020 102 4 -2.2200000000000000e-01 3.7538305059009652e+01 2.8678184744684788e+01 3.1343708767722632e+01 0 0 1
2697 31 5 -1.4799999999999999e-01 3.4856561872457320e+01 2.9999400222248170e+01 3.4620766601301021e+01 0 0 0
4006 46 1 0.0000000000000000e+00 3.9174768638037285e+01 2.6200870756572009e+01 3.5410947761856526e+01 0 1 0
9033 102 6 7.3999999999999996e-02 3.6419826332844693e+01 2.8527727582464863e+01 3.1213456864473095e+01 0 0 1
2702 31 9 -5.5000000000000004e-01 3.3608070758813959e+01 3.1885906115706309e+01 3.3606296818880942e+01 0 0 0
4039 46 2 2.9999999999999999e-02 3.7004756225977488e+01 2.6512349332931930e+01 3.5171882789239440e+01 0 1 0
127 2 7 7.3999999999999996e-02 3.3343366543531189e+01 2.4255773031514622e+01 3.4594594352486041e+01 0 0 0
4008 46 10 -4.5000000000000001e-01 3.9577692726343287e+01 2.8100288612700346e+01 3.4019411396837853e+01 0 1 0
4051 46 3 1.9000000000000000e-01 3.9057539138145700e+01 2.4653771029851310e+01 3.5469350490273840e+01 0 1 0
9078 102 6 7.3999999999999996e-02 3.5308905592803498e+01 3.1011041145541466e+01 3.0104187017055040e+01 0 0 1
133 2 6 7.3999999999999996e-02 3.5301043888234361e+01 2.3986957717958415e+01 3.3014225058264358e+01 0 0 0
4029 46 3 1.9000000000000000e-01 3.7796163049222208e+01 2.6834338204243586e+01 3.5830316757896391e+01 0 1 0
4038 46 2 2.9999999999999999e-02 3.7917479187724517e+01 2.7912947290465297e+01 3.5622172339409630e+01 0 1 0
164 2 4 -2.2200000000000000e-01 2.4016182550883972e+01 3.3344487429145758e+01 2.9968373468544392e+01 0 0 0
2681 31 2 2.9999999999999999e-02 2.9087450134011711e+01 3.3674279942873270e+01 3.5905572886133022e+01 0 0 0
173 2 7 7.3999999999999996e-02 2.4162749572455052e+01 3.1940155531440745e+01 3.2306145559602086e+01 0 0 0
2671 31 1 0.0000000000000000e+00 3.0852176811011994e+01 3.2277419025750014e+01 3.5728656446267735e+01 0 0 0
2740 31 8 7.5000000000000000e-01 3.0727738178340037e+01 3.2226550291099834e+01 3.2008993701433141e+01 0 0 0
5783 65 6 7.3999999999999996e-02 2.5447649967812264e+01 3.5303859236980173e+01 3.5736850657982160e+01 1 0 0
823 10 6 7.3999999999999996e-02 2.4279995113079242e+01 3.7904288913907266e+01 3.0228049237504436e+01 1 0 0
525 6 7 7.3999999999999996e-02 2.5864959341237412e+01 3.9868835474020116e+01 3.0824673537334068e+01 0 0 0
2753 31 7 7.3999999999999996e-02 2.8251618697499211e+01 3.4014885112909525e+01 3.0384739901124412e+01 0 0 0
2759 31 6 7.3999999999999996e-02 2.5848842061622140e+01 3.4688813851040024e+01 3.2309314447222704e+01 0 0 0
2673 31 10 -4.5000000000000001e-01 3.0711811417545608e+01 3.4642415136459391e+01 3.5013318808432444e+01 0 0 0
486 6 7 7.3999999999999996e-02 3.0447848641146386e+01 3.8032769372818841e+01 3.2199200945482588e+01 0 0 0
2757 31 6 7.3999999999999996e-02 2.6910342640882650e+01 3.5732134471542942e+01 3.3080967580295734e+01 0 0 0
2745 31 4 -2.2200000000000000e-01 2.6653517487774355e+01 3.4688596990588920e+01 3.2983560619681469e+01 0 0 0
2758 31 6 7.3999999999999996e-02 2.6343228064129942e+01 3.4260713731843211e+01 3.3945267564876616e+01 0 0 0
475 6 5 -1.4799999999999999e-01 2.9769028392656249e+01 3.8658149446652160e+01 3.1642931064259898e+01 0 0 0
2754 31 7 7.3999999999999996e-02 2.8309504176462578e+01 3.5619790885309783e+01 3.1094688648254895e+01 0 0 0
2743 31 5 -1.4799999999999999e-01 2.8575437669897276e+01 3.4571857035140738e+01 3.1241703089552225e+01 0 0 0
2744 31 5 -1.4799999999999999e-01 2.7928054101652918e+01 3.3931016531073119e+01 3.2493014557255776e+01 0 0 0
2756 31 7 7.3999999999999996e-02 2.7680584179579245e+01 3.2838153359756753e+01 3.2398903321376473e+01 0 0 0
490 6 6 7.3999999999999996e-02 2.7817166246904080e+01 3.7916932334268040e+01 3.2506789554579377e+01 0 0 0
2755 31 7 7.3999999999999996e-02 2.8564949525737362e+01 3.4115076819116950e+01 3.3360699162412772e+01 0 0 0