LAMMPS data file via write_data, version 5 Jun 2019, timestep = 11600000

11125 atoms
9 atom types
11000 bonds
6 bond types
20750 angles
11 angle types
28000 dihedrals
14 dihedral types
500 impropers
1 improper types

2.4033035279240380e+01 7.1966964720730047e+01 xlo xhi
2.4033035279240380e+01 7.1966964720730047e+01 ylo yhi
2.4033035279240380e+01 7.1966964720730047e+01 zlo zhi

Masses

1 12.011
2 12.011
3 12.011
4 1.008
5 12.011
6 15.999
7 15.999
8 1.008
9 12.011

Atoms # full

8181 92 4 5.9999999999999998e-02 2.7694521832885272e+01 2.9765835183509338e+01 2.7650893699300902e+01 0 0 1
8171 92 2 -1.2000000000000000e-01 2.7573023170689954e+01 2.8788090373177337e+01 2.8003803746879882e+01 0 0 1
8172 92 2 -1.2000000000000000e-01 2.6908393286098629e+01 2.7934978515666270e+01 2.6850259930444913e+01 0 0 1
8180 92 4 5.9999999999999998e-02 2.8598318121741436e+01 2.8461127204178311e+01 2.8158510041184286e+01 0 0 1
8182 92 4 5.9999999999999998e-02 2.5888207326367876e+01 2.8242922205096498e+01 2.6742244117781404e+01 0 0 1
8183 92 4 5.9999999999999998e-02 2.6867958048321466e+01 2.6804146262929436e+01 2.7140809126158008e+01 0 0 1
2569 29 8 2.9999999999999999e-02 2.8768020885063564e+01 2.6489743553245951e+01 3.4586009849528651e+01 1 0 0
8179 92 4 5.9999999999999998e-02 2.7326429147128010e+01 2.9348545047438094e+01 2.9980614868002750e+01 0 0 1
8170 92 2 -1.2000000000000000e-01 2.6802691227066667e+01 2.8694295261393542e+01 2.9329478220034552e+01 0 0 1
8178 92 4 5.9999999999999998e-02 2.6682123590965887e+01 2.7669496074483156e+01 2.9677703091094973e+01 0 0 1
4548 52 1 -1.7999999999999999e-01 2.6916592761224130e+01 2.5436183469026201e+01 3.1680017875832750e+01 0 0 1
8168 92 7 -3.3000000000000002e-01 2.5342245514749763e+01 3.0553824737760181e+01 2.9143109957135941e+01 0 0 1
8169 92 5 5.1000000000000001e-01 2.5392362060037211e+01 2.9209142660970514e+01 2.9189511535428188e+01 0 0 1
4561 52 4 5.9999999999999998e-02 2.7488362914612125e+01 2.5945895796637142e+01 3.0870949126994319e+01 0 0 1
6693 76 4 5.9999999999999998e-02 3.0609953540826236e+01 2.5611734675655441e+01 2.7034668625532483e+01 0 0 1
8173 92 2 -1.2000000000000000e-01 2.7644457637349547e+01 2.8184721769806618e+01 2.5496395231351162e+01 0 0 1
2494 29 9 1.9000000000000000e-01 3.1238577884004329e+01 2.5147526041903927e+01 3.4267879536938537e+01 1 0 0
2495 29 7 -3.3000000000000002e-01 3.0708559870946722e+01 2.5476169810112040e+01 3.2945559508441747e+01 1 0 0
8185 92 4 5.9999999999999998e-02 2.8765230792343335e+01 2.8188700166620208e+01 2.5720146056128893e+01 0 0 1
8187 92 4 5.9999999999999998e-02 2.6038339897392142e+01 2.9527531701412258e+01 2.4966064844680126e+01 0 0 1
8174 92 1 -1.7999999999999999e-01 2.7086724997215217e+01 2.9462305397542966e+01 2.4837090313901903e+01 0 0 1
4556 52 4 5.9999999999999998e-02 2.5678373505176246e+01 2.5442305539319069e+01 2.9411862254849073e+01 0 0 1
8184 92 4 5.9999999999999998e-02 2.7352304663344157e+01 2.7258712866097131e+01 2.4947287569914572e+01 0 0 1
2497 29 2 -1.2000000000000000e-01 3.1014461812127330e+01 2.5692546396424071e+01 3.0584536875481479e+01 1 0 0
2468 28 4 5.9999999999999998e-02 2.6465497549169299e+01 2.9277791773932105e+01 3.2656656915184385e+01 1 0 0
2565 29 2 -1.2000000000000000e-01 3.1886764903646643e+01 2.9549797154615732e+01 3.4024164753231780e+01 1 0 0
2560 29 9 1.9000000000000000e-01 2.9295436537924694e+01 2.6292706203206500e+01 3.5516055081032199e+01 1 0 0
8136 92 4 5.9999999999999998e-02 2.7799222420771983e+01 3.1718409074733700e+01 2.9019195039979543e+01 0 0 1
8186 92 4 5.9999999999999998e-02 2.7524950409800709e+01 3.0393077986550370e+01 2.5126826916240166e+01 0 0 1
4546 52 2 -1.2000000000000000e-01 2.4978888652127637e+01 2.4998098706084388e+01 3.0134195236817568e+01 0 0 1
2454 28 2 -1.2000000000000000e-01 2.6257687327225526e+01 3.1258813848411059e+01 3.4696236709322491e+01 1 0 0
2464 28 4 5.9999999999999998e-02 2.7274235686116281e+01 3.0837814702691055e+01 3.4659825325798607e+01 1 0 0
4560 52 4 5.9999999999999998e-02 2.7094530940098192e+01 2.5751543590612282e+01 3.2734249184863167e+01 0 0 1
4547 52 2 -1.2000000000000000e-01 2.5425788286058854e+01 2.5619146499395814e+01 3.1458552887424560e+01 0 0 1
2575 29 4 5.9999999999999998e-02 3.1117001387060863e+01 2.8811431125618519e+01 3.3863842693786154e+01 1 0 0
2506 29 4 5.9999999999999998e-02 3.0403895578902230e+01 2.6669238810270979e+01 3.0704135123373455e+01 1 0 0
2496 29 5 5.1000000000000001e-01 3.1585073313143873e+01 2.5695570193946189e+01 3.1957047201257030e+01 1 0 0
2505 29 4 5.9999999999999998e-02 3.1761696080794017e+01 2.5881175658920412e+01 2.9791236574823877e+01 1 0 0
2503 29 8 2.9999999999999999e-02 3.1782786323528619e+01 2.6101522346407251e+01 3.4565861762129039e+01 1 0 0
6694 76 4 5.9999999999999998e-02 3.1096145743848290e+01 2.7815198902750254e+01 2.5965296857231454e+01 0 0 1
6682 76 2 -1.2000000000000000e-01 3.1410714284904746e+01 2.5710664709361012e+01 2.6294626893284292e+01 0 0 1
6681 76 2 -1.2000000000000000e-01 3.0666323856599199e+01 2.5291676357807219e+01 2.4990463944939499e+01 0 0 1
5133 58 4 5.9999999999999998e-02 2.7441287334821151e+01 2.4535012889592352e+01 2.4786958518985308e+01 0 0 0
5086 58 4 5.9999999999999998e-02 3.0182042249714616e+01 2.9832862732565449e+01 2.5262490555042895e+01 0 0 0
4562 52 4 5.9999999999999998e-02 2.7264474113458260e+01 2.4404021950269779e+01 3.1784013638834949e+01 0 0 1
2455 28 2 -1.2000000000000000e-01 2.5226738245761485e+01 3.0376603923576020e+01 3.4077275531905933e+01 1 0 0
5079 58 2 -1.2000000000000000e-01 3.1742190028640927e+01 3.1126033774876610e+01 2.5113507362089713e+01 0 0 0
2564 29 2 -1.2000000000000000e-01 3.1326930627259117e+01 3.0440891430583552e+01 3.5190840562746878e+01 1 0 0
2581 29 4 5.9999999999999998e-02 3.2280434773604689e+01 2.8685663165665034e+01 3.1387620484549025e+01 1 0 0
9723 110 4 5.9999999999999998e-02 2.9531259889897587e+01 3.7015004074492374e+01 2.4140263152854722e+01 1 0 1
4551 52 8 2.9999999999999999e-02 2.4183428664452450e+01 2.6981533938685807e+01 2.5484445939806740e+01 0 0 1
2498 29 2 -1.2000000000000000e-01 3.0213493244486660e+01 2.4464254416068734e+01 3.0173378501733620e+01 1 0 0
2493 29 3 0.0000000000000000e+00 3.0102169085772967e+01 2.4932676041605312e+01 3.5330883816360398e+01 1 0 0
2712 31 4 5.9999999999999998e-02 3.9244856692411986e+01 2.6596691440712391e+01 3.5848346831126072e+01 0 0 0
6696 76 4 5.9999999999999998e-02 3.1926761863879602e+01 2.8131421337597935e+01 2.8112906655908844e+01 0 0 1
3331 38 4 5.9999999999999998e-02 3.9350727576361052e+01 2.4727412508467395e+01 2.7285634527079207e+01 0 1 0
736 9 9 1.9000000000000000e-01 3.7984340443980315e+01 3.7462287558001250e+01 2.4440132191109342e+01 0 0 0
2507 29 4 5.9999999999999998e-02 2.9801541501445662e+01 2.4708589289707280e+01 2.9249784111252211e+01 1 0 0
8167 92 9 1.9000000000000000e-01 2.4137783506967459e+01 3.1325309810224873e+01 2.8964059760409661e+01 0 0 1
5078 58 2 -1.2000000000000000e-01 3.0465561288358511e+01 3.0495162826829493e+01 2.4439393141825065e+01 0 0 0
2469 28 4 5.9999999999999998e-02 2.5879440846401014e+01 3.0957164277980148e+01 3.2121037300464145e+01 1 0 0
2526 29 8 2.9999999999999999e-02 2.8617150406450243e+01 2.4110021593876933e+01 3.3890307819549996e+01 1 0 0
6719 76 4 5.9999999999999998e-02 3.9472893084573315e+01 2.9126012048976925e+01 2.9908156395509380e+01 0 0 1
2651 30 5 5.1000000000000001e-01 2.4999396247657526e+01 2.5018003150461286e+01 3.5521044170343842e+01 1 0 0
2574 29 4 5.9999999999999998e-02 3.0461383062206078e+01 3.0937774151401246e+01 3.4857868934650149e+01 1 0 0
4549 52 6 -4.2999999999999999e-01 2.4599314486898930e+01 2.5080852636340481e+01 2.6999750508087864e+01 0 0 1
4559 52 4 5.9999999999999998e-02 2.5353004339156428e+01 2.6649844215944960e+01 3.1508338144514184e+01 0 0 1
4558 52 4 5.9999999999999998e-02 2.4923257047530996e+01 2.5213754431492703e+01 3.2362582370488468e+01 0 0 1
2508 29 4 5.9999999999999998e-02 2.9357241131471419e+01 2.4294796969992408e+01 3.0876490864536422e+01 1 0 0
2467 28 4 5.9999999999999998e-02 2.5099831337311365e+01 2.9464023716805507e+01 3.4722904415338789e+01 1 0 0
2470 28 4 5.9999999999999998e-02 2.4755196356839932e+01 2.9641901555796327e+01 3.2158006519098635e+01 1 0 0
745 9 8 2.9999999999999999e-02 3.8364479459713905e+01 3.6440777366775592e+01 2.4289274328622966e+01 0 0 0
6691 76 4 5.9999999999999998e-02 3.1345222218005119e+01 2.5412403543276795e+01 2.4169343837743877e+01 0 0 1
7884 89 2 -1.2000000000000000e-01 3.9159912650798795e+01 2.4622565174755941e+01 3.1559145710436084e+01 0 1 1
2566 29 2 -1.2000000000000000e-01 3.2024408723068383e+01 3.0335463923179404e+01 3.2699494202648381e+01 1 0 0
6692 76 4 5.9999999999999998e-02 3.2176130245046082e+01 2.5010197015541859e+01 2.6458746783387284e+01 0 0 1
2578 29 4 5.9999999999999998e-02 3.1066549852202513e+01 3.0636865598280483e+01 3.2414852133195858e+01 1 0 0
6683 76 2 -1.2000000000000000e-01 3.1913570724536907e+01 2.7160023440457149e+01 2.6235476074076487e+01 0 0 1
6697 76 4 5.9999999999999998e-02 3.3330295892387710e+01 2.8490791587822137e+01 2.7214359758658890e+01 0 0 1
6684 76 1 -1.7999999999999999e-01 3.2588426152294559e+01 2.7718778984295625e+01 2.7450254326859017e+01 0 0 1
6698 76 4 5.9999999999999998e-02 3.3055924314224185e+01 2.6884198005744331e+01 2.7999572701654589e+01 0 0 1
2562 29 5 5.1000000000000001e-01 2.9754739320364699e+01 2.8581956660644028e+01 3.5978865097309615e+01 1 0 0
1037 12 4 5.9999999999999998e-02 3.2427743558707085e+01 3.6709101711474133e+01 3.1741726531777832e+01 0 0 0
2568 29 6 -4.2999999999999999e-01 2.8603991289289933e+01 2.8970068808637571e+01 3.5870489219190603e+01 1 0 0
787 9 1 -1.7999999999999999e-01 3.3029605663289118e+01 3.7627402953804634e+01 2.7042540522478561e+01 0 0 0
2456 28 1 -1.7999999999999999e-01 2.5629328592691092e+01 3.0002836714736006e+01 3.2647042624667613e+01 1 0 0
8139 92 4 5.9999999999999998e-02 2.8694330162515719e+01 3.2543844066893556e+01 2.6929178889785259e+01 0 0 1
793 9 4 5.9999999999999998e-02 3.4940239968227232e+01 3.8470984396125928e+01 2.9678300893759946e+01 0 0 0
2576 29 4 5.9999999999999998e-02 3.2865753399276869e+01 2.9134408484228466e+01 3.4214542378804687e+01 1 0 0
2573 29 4 5.9999999999999998e-02 3.2173599520068528e+01 3.1085635946651276e+01 3.5440256669265572e+01 1 0 0
6700 76 7 -3.3000000000000002e-01 3.5482262967215441e+01 2.4166856085302207e+01 2.6200047346485700e+01 0 0 1
1459 17 4 5.9999999999999998e-02 3.7573370459495678e+01 3.9941907395548867e+01 3.5477652577131529e+01 0 0 0
1044 12 4 5.9999999999999998e-02 2.8758451033283436e+01 3.6378665143486870e+01 3.5479604701762099e+01 0 0 0
2502 29 6 -4.2999999999999999e-01 3.2832713431906598e+01 2.5631606210074882e+01 3.2052837533057044e+01 1 0 0
2579 29 4 5.9999999999999998e-02 3.3881265337445868e+01 2.9436439112999444e+01 3.1860860356262567e+01 1 0 0
2577 29 4 5.9999999999999998e-02 3.2595729214721231e+01 3.1236422765606392e+01 3.3039245777979204e+01 1 0 0
6708 76 8 2.9999999999999999e-02 3.6322222319731374e+01 2.4296940631294795e+01 2.4389685352406900e+01 0 0 1
6711 76 4 5.9999999999999998e-02 3.5685901334800555e+01 2.4162453085644334e+01 2.8557229194666629e+01 0 0 1
791 9 4 5.9999999999999998e-02 3.7416750829373839e+01 3.9186915394158646e+01 2.9434958858336781e+01 0 0 0
2661 30 4 5.9999999999999998e-02 2.4417628578678578e+01 2.6965369169064846e+01 3.4790868168990343e+01 1 0 0
2567 29 1 -1.7999999999999999e-01 3.2819746861614647e+01 2.9635859374233704e+01 3.1589605605106954e+01 1 0 0
2580 29 4 5.9999999999999998e-02 3.2846354013934473e+01 3.0322196030578191e+01 3.0773096126775119e+01 1 0 0
5088 58 4 5.9999999999999998e-02 3.2455649807977231e+01 3.0373886120999053e+01 2.5376750963522525e+01 0 0 0
6690 76 4 5.9999999999999998e-02 2.9865262690181773e+01 2.6023529599403325e+01 2.4830272660051126e+01 0 0 1
6709 76 8 2.9999999999999999e-02 3.4714797448847264e+01 2.4806852279060696e+01 2.4330202213786158e+01 0 0 1
1912 22 4 5.9999999999999998e-02 3.5299508977064100e+01 2.9625561994764940e+01 2.6219810398307171e+01 0 1 0
6695 76 4 5.9999999999999998e-02 3.2444105777761571e+01 2.7359596180572069e+01 2.5319689256628880e+01 0 0 1
6702 76 2 -1.2000000000000000e-01 3.6321286294902059e+01 2.5020642819403662e+01 2.8145441646682965e+01 0 0 1
6715 76 4 5.9999999999999998e-02 3.8341002099189424e+01 2.6739102355484423e+01 2.8781845337227587e+01 0 0 1
6712 76 4 5.9999999999999998e-02 3.6233430159756033e+01 2.5732628566826893e+01 3.0137656512314248e+01 0 0 1
6714 76 4 5.9999999999999998e-02 3.7199939966455403e+01 2.7597337558545430e+01 2.7856803107454308e+01 0 0 1
6713 76 4 5.9999999999999998e-02 3.5229473680745237e+01 2.6716834463036758e+01 2.8945336476333630e+01 0 0 1
6703 76 2 -1.2000000000000000e-01 3.6189245903791196e+01 2.6197871584130979e+01 2.9137612757840252e+01 0 0 1
6705 76 2 -1.2000000000000000e-01 3.7387847540272830e+01 2.8464232303094867e+01 2.9746483780536376e+01 0 0 1
6704 76 2 -1.2000000000000000e-01 3.7365275501235523e+01 2.7166095868849091e+01 2.8843395461527315e+01 0 0 1
6717 76 4 5.9999999999999998e-02 3.6473425235755940e+01 2.9000332685134801e+01 2.9514184223813778e+01 0 0 1
6563 74 4 5.9999999999999998e-02 3.6550449584632560e+01 2.7681718955590348e+01 3.2637687343401801e+01 1 1 0
6550 74 1 -1.7999999999999999e-01 3.6353589452547510e+01 2.6723128274331387e+01 3.3104590677860422e+01 1 1 0
6701 76 5 5.1000000000000001e-01 3.5845923684955878e+01 2.5296963062396451e+01 2.6750594606741132e+01 0 0 1
6549 74 2 -1.2000000000000000e-01 3.5368155739818590e+01 2.6738080905292922e+01 3.4216240655533170e+01 1 1 0
6707 76 6 -4.2999999999999999e-01 3.5966509150581430e+01 2.6367539537466659e+01 2.6151055447860379e+01 0 0 1
6716 76 4 5.9999999999999998e-02 3.7348817371996297e+01 2.8170947842980461e+01 3.0742848377655100e+01 0 0 1
6560 74 4 5.9999999999999998e-02 3.4468038152533175e+01 2.7012634540431545e+01 3.3737535483864264e+01 1 1 0
6562 74 4 5.9999999999999998e-02 3.7262997854794591e+01 2.6282855255082804e+01 3.3468685169501327e+01 1 1 0
6564 74 4 5.9999999999999998e-02 3.6091631929447168e+01 2.6236770401200229e+01 3.2176323851173606e+01 1 1 0
1913 22 4 5.9999999999999998e-02 3.5985176144676146e+01 2.8694858446102185e+01 2.4898678946716654e+01 0 1 0
1914 22 4 5.9999999999999998e-02 3.5234635136804229e+01 3.0318816624576463e+01 2.4517923744977658e+01 0 1 0
1900 22 1 -1.7999999999999999e-01 3.5811209115221217e+01 2.9749299200864542e+01 2.5251327703694699e+01 0 1 0
6561 74 4 5.9999999999999998e-02 3.5196036058152536e+01 2.5691299980784279e+01 3.4612614852640974e+01 1 1 0
3335 38 4 5.9999999999999998e-02 3.8554889925018749e+01 2.6098384666005465e+01 2.5526956856183418e+01 0 1 0
1899 22 2 -1.2000000000000000e-01 3.7166476611368651e+01 3.0348498672288926e+01 2.5414149964326676e+01 0 1 0
1911 22 4 5.9999999999999998e-02 3.7572029398110807e+01 3.0782003579439053e+01 2.4521022744148475e+01 0 1 0
3323 38 2 -1.2000000000000000e-01 3.9511678861256144e+01 2.5863969467261278e+01 2.4960425657622526e+01 0 1 0
5605 63 4 5.9999999999999998e-02 3.6208202680126192e+01 3.0874207478829582e+01 3.5201302553366936e+01 0 0 0
1910 22 4 5.9999999999999998e-02 3.7895092348594318e+01 2.9614604832496347e+01 2.5786945278897093e+01 0 1 0
1898 22 2 -1.2000000000000000e-01 3.7135415519308864e+01 3.1506312115959112e+01 2.6416605549085723e+01 0 1 0
1906 22 4 5.9999999999999998e-02 3.9183655729809885e+01 3.1560008281072626e+01 2.6642220690821048e+01 0 1 0
6718 76 4 5.9999999999999998e-02 3.8589071342083358e+01 2.9413535917668884e+01 2.8467324725076359e+01 0 0 1
6720 76 4 5.9999999999999998e-02 3.8229950740890175e+01 3.0453762287105327e+01 2.9724229776879579e+01 0 0 1
2448 28 4 5.9999999999999998e-02 2.9844245639999897e+01 3.9466494386080996e+01 2.7328179998855965e+01 1 0 0
2434 28 1 -1.7999999999999999e-01 2.9184135914467916e+01 3.9807112077102872e+01 2.8103413276190683e+01 1 0 0
6706 76 1 -1.7999999999999999e-01 3.8535859474909643e+01 2.9365002973549785e+01 2.9481657959241076e+01 0 0 1
6710 76 4 5.9999999999999998e-02 3.7340830270561284e+01 2.4628985181693942e+01 2.8201901767653908e+01 0 0 1
783 9 2 -1.2000000000000000e-01 3.7059538827803713e+01 3.8191603384480629e+01 2.9376130765700246e+01 0 0 0
5132 58 4 5.9999999999999998e-02 2.5720120667057131e+01 2.4471898270897551e+01 2.4818872102306781e+01 0 0 0
1909 22 4 5.9999999999999998e-02 3.6966834514619784e+01 3.1202579370055304e+01 2.7406934762275263e+01 0 1 0
6559 74 4 5.9999999999999998e-02 3.5586956514076441e+01 2.8638502272265701e+01 3.5144905535622058e+01 1 1 0
6558 74 4 5.9999999999999998e-02 3.6583756882996141e+01 2.7311152196060917e+01 3.5769958411077326e+01 1 1 0
6548 74 2 -1.2000000000000000e-01 3.5623605965492629e+01 2.7572414232687436e+01 3.5474084825582722e+01 1 1 0
5593 63 1 -1.7999999999999999e-01 3.7280121831023102e+01 3.1113708986683037e+01 3.5348937643957882e+01 0 0 0
5606 63 4 5.9999999999999998e-02 3.7816849807692705e+01 3.0699077015577593e+01 3.4512752462579805e+01 0 0 0
1932 22 4 5.9999999999999998e-02 3.4976104942069043e+01 3.1852813516626767e+01 2.9032582633658699e+01 0 1 0
1057 12 8 2.9999999999999999e-02 2.7795208131204646e+01 3.9175763523843301e+01 3.4021022866140498e+01 0 0 0
2561 29 7 -3.3000000000000002e-01 3.0176760851313759e+01 2.7337745115866174e+01 3.5889722273401638e+01 1 0 0
5089 58 4 5.9999999999999998e-02 3.1453625204291498e+01 3.1475452194173577e+01 2.6122446196501400e+01 0 0 0
1028 12 2 -1.2000000000000000e-01 3.2074496693456808e+01 3.7314640816011938e+01 3.2549206531273541e+01 0 0 0
2450 28 7 -3.3000000000000002e-01 2.5618966962370305e+01 3.4232031966529448e+01 3.5744399534802326e+01 1 0 0
7895 89 4 5.9999999999999998e-02 3.8265452896077697e+01 2.5130722323039876e+01 3.1824283970992038e+01 0 1 1
800 9 4 5.9999999999999998e-02 3.3449067173362529e+01 3.6810673576610142e+01 2.7595913676784456e+01 0 0 0
1055 12 6 -4.2999999999999999e-01 2.5409180751171075e+01 3.9259139630006729e+01 3.5232035676626516e+01 0 0 0
2449 28 9 1.9000000000000000e-01 2.4731353331669556e+01 3.5309561514318681e+01 3.5664772794128147e+01 1 0 0
9724 110 4 5.9999999999999998e-02 3.0618853698219294e+01 3.8102329060782338e+01 2.4803223799080168e+01 1 0 1
8137 92 4 5.9999999999999998e-02 2.9471140561998141e+01 3.1654447539827938e+01 2.9096441023106756e+01 0 0 1
2465 28 4 5.9999999999999998e-02 2.6132866823530765e+01 3.2244759915027274e+01 3.4228675798238228e+01 1 0 0
713 9 3 0.0000000000000000e+00 3.9074051686808808e+01 3.8302993937082157e+01 2.5123718589493933e+01 0 0 0
8138 92 4 5.9999999999999998e-02 2.8090354284450541e+01 3.4011377635290089e+01 2.7768056957120251e+01 0 0 1
1032 12 1 -1.7999999999999999e-01 2.9388518025270869e+01 3.5550949877465882e+01 3.5630111090164235e+01 0 0 0
8142 92 4 5.9999999999999998e-02 3.0591609621572193e+01 3.3937234102815481e+01 2.5708255003829692e+01 0 0 1
8130 92 1 -1.7999999999999999e-01 3.0445901291601487e+01 3.4688905171351422e+01 2.6479442954980609e+01 0 0 1
8128 92 2 -1.2000000000000000e-01 2.8824197760060443e+01 3.3212331448905267e+01 2.7840873583538670e+01 0 0 1
2481 28 8 2.9999999999999999e-02 2.4577361749990168e+01 3.3737806695535596e+01 3.3263860859068458e+01 1 0 0
2504 29 8 2.9999999999999999e-02 3.1843934837856999e+01 2.4208114772108495e+01 3.4234577564214504e+01 1 0 0
8131 92 6 -4.2999999999999999e-01 2.6851630012501051e+01 3.3549778313570442e+01 3.2074738182550902e+01 0 0 1
8127 92 2 -1.2000000000000000e-01 2.8664744999762711e+01 3.2357656824306744e+01 2.9101111268724843e+01 0 0 1
1038 12 4 5.9999999999999998e-02 3.0979126327444561e+01 3.7351879439757425e+01 3.4298989863349171e+01 0 0 0
2466 28 4 5.9999999999999998e-02 2.4305153423329141e+01 3.0952569085108436e+01 3.4087041454828125e+01 1 0 0
8150 92 2 -1.2000000000000000e-01 2.4448462619501935e+01 3.7222768923101476e+01 2.6031913476133386e+01 0 0 1
792 9 4 5.9999999999999998e-02 3.7173722881989100e+01 3.7664163955174423e+01 3.0389847247854590e+01 0 0 0
8151 92 2 -1.2000000000000000e-01 2.5007923550900852e+01 3.7471829057168016e+01 2.4639660839183190e+01 0 0 1
8161 92 4 5.9999999999999998e-02 2.4775971122440467e+01 3.8094945626563828e+01 2.6587152759115913e+01 0 0 1
2433 28 2 -1.2000000000000000e-01 2.7931586302452885e+01 3.8937993900429277e+01 2.8067817020084398e+01 1 0 0
8144 92 4 5.9999999999999998e-02 2.9613250295708504e+01 3.5403565813786273e+01 2.6193729522883018e+01 0 0 1
8129 92 2 -1.2000000000000000e-01 3.0111549720258456e+01 3.4032896686693206e+01 2.7791352779009632e+01 0 0 1
8166 92 4 5.9999999999999998e-02 2.7258925353870143e+01 3.7533634234096091e+01 2.4887042123329746e+01 0 0 1
2443 28 4 5.9999999999999998e-02 2.8759992583678002e+01 3.7668713698078115e+01 2.9610040139642464e+01 1 0 0
8152 92 1 -1.7999999999999999e-01 2.6440357950830727e+01 3.7029109943832189e+01 2.4456312418878742e+01 0 0 1
8141 92 4 5.9999999999999998e-02 3.0284231990533140e+01 3.4619196881445923e+01 2.8642942262848738e+01 0 0 1
8102 92 7 -3.3000000000000002e-01 2.4511874123867972e+01 3.2726897965698889e+01 2.6270153269052312e+01 0 0 1
8103 92 5 5.1000000000000001e-01 2.5301273484757875e+01 3.2521579170093602e+01 2.5179507357082617e+01 0 0 1
8100 92 3 0.0000000000000000e+00 2.4260383092643522e+01 3.2829892410140317e+01 2.8728910819369354e+01 0 0 1
2442 28 4 5.9999999999999998e-02 2.8861185736084938e+01 3.6865283701091037e+01 2.8052928541422496e+01 1 0 0
8134 92 4 5.9999999999999998e-02 2.9004410959092148e+01 3.2407754122690363e+01 3.1253792095987439e+01 0 0 1
8133 92 8 2.9999999999999999e-02 2.4632024223566500e+01 3.3067953515480113e+01 3.0934827747103967e+01 0 0 1
8126 92 2 -1.2000000000000000e-01 2.8601955115408245e+01 3.3145051634713738e+01 3.0488779843897049e+01 0 0 1
2438 28 4 5.9999999999999998e-02 2.5822469809116356e+01 3.8384013742208815e+01 2.9821910705200118e+01 1 0 0
8135 92 4 5.9999999999999998e-02 2.9034661414578565e+01 3.4120718238131786e+01 3.0574399828885664e+01 0 0 1
8111 92 8 2.9999999999999999e-02 2.5968860867412044e+01 3.2555461867847619e+01 2.7582559080741877e+01 0 0 1
8132 92 8 2.9999999999999999e-02 2.4707715418534338e+01 3.4578121136963077e+01 3.0056599072654492e+01 0 0 1
8124 92 7 -3.3000000000000002e-01 2.6330415166215424e+01 3.3375373624989948e+01 2.9892276113101264e+01 0 0 1
8125 92 5 5.1000000000000001e-01 2.7169812616044496e+01 3.3374093064236796e+01 3.0909281719651688e+01 0 0 1
8109 92 6 -4.2999999999999999e-01 2.6514663947395178e+01 3.2590605359188693e+01 2.5217896307780954e+01 0 0 1
2440 28 4 5.9999999999999998e-02 2.6260379449200602e+01 3.6855172870025775e+01 2.7997178560406763e+01 1 0 0
8101 92 9 1.9000000000000000e-01 2.5069416041969063e+01 3.3162147136263194e+01 2.7458601798410513e+01 0 0 1
8123 92 9 1.9000000000000000e-01 2.4928363998231980e+01 3.3514310732573890e+01 2.9998343024392401e+01 0 0 1
8110 92 8 2.9999999999999999e-02 2.5292098221108542e+01 3.4226482937875737e+01 2.7333669503496793e+01 0 0 1
2439 28 4 5.9999999999999998e-02 2.5026876381489370e+01 3.6965870289963718e+01 2.9636773337655669e+01 1 0 0
2429 28 5 5.1000000000000001e-01 2.6349225263695555e+01 3.7069053580477217e+01 3.1365474899436112e+01 1 0 0
2430 28 2 -1.2000000000000000e-01 2.6001460338711723e+01 3.7353971317276546e+01 2.9931961480112925e+01 1 0 0
2428 28 7 -3.3000000000000002e-01 2.5358390103559962e+01 3.6471425135668326e+01 3.2041718747351453e+01 1 0 0
2431 28 2 -1.2000000000000000e-01 2.6897238387233013e+01 3.6777509321266145e+01 2.8824007840083546e+01 1 0 0
2432 28 2 -1.2000000000000000e-01 2.8223833476273310e+01 3.7488556828824059e+01 2.8627723941748059e+01 1 0 0
2427 28 9 1.9000000000000000e-01 2.5544533069429036e+01 3.6228203171167323e+01 3.3440039557296657e+01 1 0 0
2437 28 8 2.9999999999999999e-02 2.6391772190166360e+01 3.5489554254799494e+01 3.3510823691835313e+01 1 0 0
2436 28 8 2.9999999999999999e-02 2.5898896673603137e+01 3.7089861545552544e+01 3.3961154166784233e+01 1 0 0
2441 28 4 5.9999999999999998e-02 2.7121866836840251e+01 3.5733883392021355e+01 2.8990378173276490e+01 1 0 0
2435 28 6 -4.2999999999999999e-01 2.7393075917182795e+01 3.7529735629181275e+01 3.1871317244613721e+01 1 0 0
1040 12 4 5.9999999999999998e-02 3.0681251610778318e+01 3.4911118372768904e+01 3.2476888721830221e+01 0 0 0
1041 12 4 5.9999999999999998e-02 2.9511720067665930e+01 3.6132209067574479e+01 3.2691442765238875e+01 0 0 0
1030 12 2 -1.2000000000000000e-01 3.0302561402756982e+01 3.5653247419007762e+01 3.3181851901308285e+01 0 0 0
8140 92 4 5.9999999999999998e-02 3.0882495666817107e+01 3.3237711704531215e+01 2.7938144274405932e+01 0 0 1
1031 12 2 -1.2000000000000000e-01 2.9659899136204583e+01 3.4780502069070700e+01 3.4368577358214218e+01 0 0 0
8143 92 4 5.9999999999999998e-02 3.1382364528204384e+01 3.5268123096765599e+01 2.6470875705216837e+01 0 0 1
1026 12 7 -3.3000000000000002e-01 3.0298259337768858e+01 3.9037813833647860e+01 3.2675514110099975e+01 0 0 0
1043 12 4 5.9999999999999998e-02 2.8678589593718385e+01 3.4356992284745139e+01 3.4087207347319577e+01 0 0 0
2404 28 3 0.0000000000000000e+00 2.4325829539018788e+01 3.5706550227974589e+01 3.4250917964232038e+01 1 0 0
1027 12 5 5.1000000000000001e-01 3.1374697833181912e+01 3.8557902956399396e+01 3.1927531778626527e+01 0 0 0
1029 12 2 -1.2000000000000000e-01 3.1343235034955224e+01 3.6592742831561594e+01 3.3658480467211866e+01 0 0 0
8165 92 4 5.9999999999999998e-02 2.6473670441714596e+01 3.5976348857964283e+01 2.4704189230654865e+01 0 0 1
799 9 4 5.9999999999999998e-02 3.1971641462327185e+01 3.7686129846898929e+01 2.7094542143123437e+01 0 0 0
2444 28 4 5.9999999999999998e-02 2.7293956242169607e+01 3.9376138555278786e+01 2.8780298688194488e+01 1 0 0
1042 12 4 5.9999999999999998e-02 3.0278572762380804e+01 3.3912286914620410e+01 3.4714801319946282e+01 0 0 0
1033 12 6 -4.2999999999999999e-01 3.1617530021717883e+01 3.8883845917374671e+01 3.0742273322376171e+01 0 0 0
801 9 4 5.9999999999999998e-02 3.3364666731402160e+01 3.7497985800818995e+01 2.6017197380678827e+01 0 0 0
1039 12 4 5.9999999999999998e-02 3.2058794938802976e+01 3.6045875580419860e+01 3.4276772988637134e+01 0 0 0
2445 28 4 5.9999999999999998e-02 2.7408675593959405e+01 3.8819410247097991e+01 2.7122322518677692e+01 1 0 0
784 9 2 -1.2000000000000000e-01 3.5608764446690955e+01 3.8053085428157488e+01 2.8910853713498334e+01 0 0 0
1933 22 4 5.9999999999999998e-02 3.5396979416737850e+01 3.3692680390082757e+01 2.8626689480365975e+01 0 1 0
746 9 8 2.9999999999999999e-02 3.7228999594740102e+01 3.7226764673481256e+01 2.5205669889796226e+01 0 0 0
576 7 4 5.9999999999999998e-02 3.5392583086454636e+01 3.3391205192149080e+01 3.5217884337754455e+01 0 0 -1
724 9 8 2.9999999999999999e-02 3.7677228347888139e+01 3.9915383916284306e+01 2.5806548121175304e+01 0 0 0
575 7 4 5.9999999999999998e-02 3.3987025214015006e+01 3.2546561930133656e+01 3.4957625291135400e+01 0 0 -1
786 9 2 -1.2000000000000000e-01 3.3710603062406442e+01 3.8940303637012732e+01 2.7409683361346815e+01 0 0 0
574 7 4 5.9999999999999998e-02 3.2502678435704844e+01 3.4255135664358278e+01 3.5933123245062092e+01 0 0 -1
2822 32 4 5.9999999999999998e-02 3.9622765167324779e+01 3.9509589343970632e+01 3.0835330796118267e+01 0 0 0
795 9 4 5.9999999999999998e-02 3.5587417672674086e+01 3.8217455277674453e+01 2.6794764909583744e+01 0 0 0
2823 32 4 5.9999999999999998e-02 3.8592433998493149e+01 3.9367270425861427e+01 3.2338019821989526e+01 0 0 0
2811 32 2 -1.2000000000000000e-01 3.9670396028188350e+01 3.9545551264903800e+01 3.1965286256242962e+01 0 0 0
6699 76 9 1.9000000000000000e-01 3.5335113164280898e+01 2.4089778793095476e+01 2.4812277863771559e+01 0 0 1
714 9 9 1.9000000000000000e-01 3.8560579413419916e+01 3.9826900923299306e+01 2.5186087328370604e+01 0 0 0
8175 92 6 -4.2999999999999999e-01 2.4430762397428488e+01 2.8437213031749849e+01 2.9076184472159092e+01 0 0 1
1921 22 2 -1.2000000000000000e-01 3.5060892882947712e+01 3.2918475599355688e+01 2.9378181934931050e+01 0 1 0
796 9 4 5.9999999999999998e-02 3.5817533983354338e+01 3.9750144188482651e+01 2.7431610724306942e+01 0 0 0
2847 32 4 5.9999999999999998e-02 3.6318533811323057e+01 3.8209879097011012e+01 3.2505622562194759e+01 0 0 0
564 7 2 -1.2000000000000000e-01 3.4323478867197004e+01 3.3530225966892495e+01 3.4988707834709508e+01 0 0 -1
1927 22 4 5.9999999999999998e-02 3.7150462707481822e+01 3.3749717060675906e+01 3.2762909208879755e+01 0 1 0
1905 22 4 5.9999999999999998e-02 3.8049753038214270e+01 3.3422596769998982e+01 2.8098312734512525e+01 0 1 0
781 9 7 -3.3000000000000002e-01 3.8432447233096411e+01 3.8157384537437878e+01 2.7450306895209096e+01 0 0 0
1926 22 4 5.9999999999999998e-02 3.8234440507234446e+01 3.4965563528246712e+01 3.2058951228610113e+01 0 1 0
5080 58 2 -1.2000000000000000e-01 3.2488419024653496e+01 3.2063204373151585e+01 2.4227846038842163e+01 0 0 0
797 9 4 5.9999999999999998e-02 3.3570208130497207e+01 3.9773236334327933e+01 2.6806562189016763e+01 0 0 0
1935 22 4 5.9999999999999998e-02 3.3622765383086531e+01 3.2638650890576969e+01 3.0839861561454672e+01 0 1 0
788 9 6 -4.2999999999999999e-01 3.8456232931599544e+01 3.6291065800369090e+01 2.8799246303580350e+01 0 0 0
780 9 9 1.9000000000000000e-01 3.9414903764291800e+01 3.7763857474250401e+01 2.6521361427182839e+01 0 0 0
5092 58 4 5.9999999999999998e-02 3.4162368436370954e+01 3.1953094461286909e+01 2.5541830961680830e+01 0 0 0
1907 22 4 5.9999999999999998e-02 3.8770271844797151e+01 3.2484559441648940e+01 2.5288372257324106e+01 0 1 0
1918 22 2 -1.2000000000000000e-01 3.7815165300961660e+01 3.4006121989037439e+01 3.1927154182079473e+01 0 1 0
1934 22 4 5.9999999999999998e-02 3.3969927357182534e+01 3.4321780069576178e+01 3.0556341504575020e+01 0 1 0
782 9 5 5.1000000000000001e-01 3.8087375357434262e+01 3.7398765737046986e+01 2.8501516097037516e+01 0 0 0
1928 22 4 5.9999999999999998e-02 3.7150487425584920e+01 3.4376330468265550e+01 2.9821769491336447e+01 0 1 0
1922 22 1 -1.7999999999999999e-01 3.3834865299650971e+01 3.3361890667722918e+01 3.0093448756338592e+01 0 1 0
5094 58 4 5.9999999999999998e-02 3.5397700034805915e+01 3.3845015592511686e+01 2.4410867912155240e+01 0 0 0
1908 22 4 5.9999999999999998e-02 3.6295037872742107e+01 3.2133866361914968e+01 2.6220074940579220e+01 0 1 0