LAMMPS data file via write_data, version 5 Jun 2019, timestep = 100021

11125 atoms
9 atom types
11000 bonds
6 bond types
20750 angles
11 angle types
28000 dihedrals
14 dihedral types
500 impropers
1 improper types

2.3932174044916955e+01 7.2067825955081119e+01 xlo xhi
2.3932174044916955e+01 7.2067825955081119e+01 ylo yhi
2.3932174044916955e+01 7.2067825955081119e+01 zlo zhi

Masses

1 12.011
2 12.011
3 12.011
4 1.008
5 12.011
6 15.999
7 15.999
8 1.008
9 12.011

Atoms # full

9041 102 2 -1.2000000000000000e-01 3.0060396444210710e+01 2.8878483948659564e+01 2.5780042179003793e+01 0 0 1
9042 102 1 -1.7999999999999999e-01 3.0989471480804720e+01 2.9409410854911552e+01 2.6839015876232967e+01 0 0 1
9277 105 4 5.9999999999999998e-02 2.6704379210831927e+01 2.9726877831756511e+01 2.7738744548506514e+01 1 0 1
9279 105 4 5.9999999999999998e-02 2.7094358912548056e+01 3.0115748394682505e+01 2.6140013166930895e+01 1 0 1
150 2 4 5.9999999999999998e-02 3.0150685320290695e+01 2.6261843100229544e+01 2.8115393237510965e+01 0 0 0
9054 102 4 5.9999999999999998e-02 3.0347360064482110e+01 2.9901367206126757e+01 2.7551425115110156e+01 0 0 1
154 2 4 5.9999999999999998e-02 2.7633820858817195e+01 2.5594388904347909e+01 2.6885161988845109e+01 0 0 0
156 2 4 5.9999999999999998e-02 2.6493681424373570e+01 2.4830261039501597e+01 2.8040010352961012e+01 0 0 0
155 2 4 5.9999999999999998e-02 2.7038583352103423e+01 2.6562647594126314e+01 2.8172636097803284e+01 0 0 0
140 2 2 -1.2000000000000000e-01 2.9628248003747714e+01 2.5975866513965812e+01 2.9043142285982192e+01 0 0 0
151 2 4 5.9999999999999998e-02 2.9365733261228161e+01 2.6909659774196143e+01 2.9478316083778175e+01 0 0 0
141 2 2 -1.2000000000000000e-01 2.8487789268326662e+01 2.5004323261109050e+01 2.8819543761022508e+01 0 0 0
142 2 1 -1.7999999999999999e-01 2.7292147128395520e+01 2.5510776185400783e+01 2.7919621917186952e+01 0 0 0
9052 102 4 5.9999999999999998e-02 2.9385881917745873e+01 2.8201383050038462e+01 2.6233113974100753e+01 0 0 1
9040 102 2 -1.2000000000000000e-01 3.0793417599458976e+01 2.8218524817965950e+01 2.4529485988493256e+01 0 0 1
9053 102 4 5.9999999999999998e-02 2.9510317216033108e+01 2.9810471114311134e+01 2.5343058664952846e+01 0 0 1
9051 102 4 5.9999999999999998e-02 3.1413926098082335e+01 2.7379137871918736e+01 2.4831578187407850e+01 0 0 1
9056 102 4 5.9999999999999998e-02 3.1426047692736489e+01 2.8651183399691242e+01 2.7508552279954102e+01 0 0 1
9265 105 1 -1.7999999999999999e-01 2.7112266474418195e+01 3.0558252311432206e+01 2.7121624548220993e+01 1 0 1
9278 105 4 5.9999999999999998e-02 2.8202729955702914e+01 3.0554364501187990e+01 2.7285935726803991e+01 1 0 1
152 2 4 5.9999999999999998e-02 2.8110392909464519e+01 2.4813969474617000e+01 2.9819664463746975e+01 0 0 0
9055 102 4 5.9999999999999998e-02 3.1796141867989128e+01 3.0102792346876470e+01 2.6395248471281075e+01 0 0 1
153 2 4 5.9999999999999998e-02 2.8913292859846386e+01 2.4126317383927059e+01 2.8332461366511307e+01 0 0 0
149 2 4 5.9999999999999998e-02 3.0777789159629272e+01 2.4372061426155550e+01 2.9874613555066031e+01 0 0 0
9275 105 4 5.9999999999999998e-02 2.5493366106867388e+01 3.1943900269014296e+01 2.7421726824861146e+01 1 0 1
9296 105 4 5.9999999999999998e-02 2.4666363286440998e+01 2.4933722447437813e+01 2.6459164813684737e+01 1 0 1
9292 105 4 5.9999999999999998e-02 2.4483396505261947e+01 2.7592706048049340e+01 2.6491079261487915e+01 1 0 1
9334 105 8 2.9999999999999999e-02 2.5263964520221350e+01 3.0975239720518992e+01 2.4048511849822589e+01 1 0 1
379 5 4 5.9999999999999998e-02 2.4861566591423152e+01 2.7345165233560856e+01 2.9670012846638635e+01 1 0 0
858 10 4 5.9999999999999998e-02 2.8366664100019587e+01 3.1033577058829025e+01 2.9775673953178636e+01 1 0 0
10721 121 4 5.9999999999999998e-02 2.7268330348923627e+01 2.4160602803044952e+01 2.4110125439397542e+01 0 1 1
10724 121 4 5.9999999999999998e-02 2.9475786918165330e+01 2.4668895699226159e+01 2.5032388033330538e+01 0 1 1
9050 102 4 5.9999999999999998e-02 3.1524994698663718e+01 2.8933739637653463e+01 2.4119532127775159e+01 0 0 1
1884 22 4 5.9999999999999998e-02 3.9745531474946134e+01 2.5695309100890039e+01 2.5765534364448222e+01 0 1 0
4076 46 2 -1.2000000000000000e-01 3.9930052790129963e+01 2.9950109276917594e+01 2.5107640893141429e+01 0 1 0
138 2 2 -1.2000000000000000e-01 3.2099901737284654e+01 2.5915746910631341e+01 2.9906969893507817e+01 0 0 0
147 2 4 5.9999999999999998e-02 3.2435805442837996e+01 2.6327763204701668e+01 2.8936008352320869e+01 0 0 0
10821 122 2 -1.2000000000000000e-01 3.5880340789172529e+01 2.5589839660770132e+01 2.7779842961047024e+01 0 1 1
10818 122 2 -1.2000000000000000e-01 3.6609428835883683e+01 2.6536296832766123e+01 2.4840573703865775e+01 0 1 1
10828 122 4 5.9999999999999998e-02 3.6037999635596222e+01 2.8485513167591350e+01 2.5764816860991250e+01 0 1 1
10819 122 2 -1.2000000000000000e-01 3.6420395544891882e+01 2.7464778304342900e+01 2.6127220737857439e+01 0 1 1
10831 122 4 5.9999999999999998e-02 3.5348988447591111e+01 2.7656096762744212e+01 2.8027072964205850e+01 0 1 1
10820 122 2 -1.2000000000000000e-01 3.5461367842926542e+01 2.6967727397066337e+01 2.7143806344208947e+01 0 1 1
10829 122 4 5.9999999999999998e-02 3.7302410968689223e+01 2.7764555720921727e+01 2.6600689194188615e+01 0 1 1
2934 33 4 5.9999999999999998e-02 3.5805838170231461e+01 3.0746577130206997e+01 2.8805062089741519e+01 0 0 0
2923 33 1 -1.7999999999999999e-01 3.3979226792856572e+01 3.1055195392152559e+01 2.9436589319784034e+01 0 0 0
10835 122 4 5.9999999999999998e-02 3.7383487525267370e+01 2.6289880489315582e+01 2.9278042826302222e+01 0 1 1
2935 33 4 5.9999999999999998e-02 3.3633163617883866e+01 3.0307582322570319e+01 2.8745559880614024e+01 0 0 0
2936 33 4 5.9999999999999998e-02 3.3107056862882509e+01 3.1752629866847940e+01 2.9577536567112155e+01 0 0 0
10822 122 1 -1.7999999999999999e-01 3.7326156795248778e+01 2.5646513814559128e+01 2.8397353727317807e+01 0 1 1
4082 46 8 2.9999999999999999e-02 3.8917664666535615e+01 3.0779628158796839e+01 2.9026937680959886e+01 0 1 0
10830 122 4 5.9999999999999998e-02 3.4469084147395250e+01 2.6816953867774828e+01 2.6659671144076352e+01 0 1 1
4081 46 6 -4.2999999999999999e-01 3.9254799999962316e+01 2.9048779804274069e+01 2.7222165440951759e+01 0 1 0
10832 122 4 5.9999999999999998e-02 3.5836959440868952e+01 2.4813642849414173e+01 2.7109689255706847e+01 0 1 1
10833 122 4 5.9999999999999998e-02 3.5245009089165137e+01 2.5304395376866179e+01 2.8606235264437885e+01 0 1 1
10836 122 4 5.9999999999999998e-02 3.8115384373785716e+01 2.6020497533952387e+01 2.7816367776969642e+01 0 1 1
4087 46 4 5.9999999999999998e-02 3.8757632396852031e+01 3.1580317800393914e+01 2.4360275081210112e+01 0 1 0
2922 33 2 -1.2000000000000000e-01 3.5324268015126037e+01 3.1656558996543065e+01 2.9100331266399301e+01 0 0 0
9034 102 4 5.9999999999999998e-02 3.5852321424250221e+01 3.1191404403872191e+01 2.4519666487013186e+01 0 0 1
10826 122 4 5.9999999999999998e-02 3.7180137426553500e+01 2.5621262076097885e+01 2.5096536035941057e+01 0 1 1
4075 46 5 5.1000000000000001e-01 3.9460746611458887e+01 3.0052142526567700e+01 2.6572066691673026e+01 0 1 0
10827 122 4 5.9999999999999998e-02 3.5746842139482972e+01 2.6252258210949073e+01 2.4321490559328339e+01 0 1 1
4077 46 2 -1.2000000000000000e-01 3.9832901710649146e+01 3.1279128130998213e+01 2.4290398055327394e+01 0 1 0
4084 46 4 5.9999999999999998e-02 3.9613718299430978e+01 2.9079037879023048e+01 2.4516128165894219e+01 0 1 0
10834 122 4 5.9999999999999998e-02 3.7595562835597242e+01 2.4570498958475024e+01 2.8738179104906649e+01 0 1 1
10767 121 4 5.9999999999999998e-02 3.3748974596359425e+01 2.4249965688785959e+01 2.6393605845297134e+01 0 1 1
4074 46 7 -3.3000000000000002e-01 3.9676031517152701e+01 3.1259308990274000e+01 2.7129416874119812e+01 0 1 0
4073 46 9 1.9000000000000000e-01 3.9606695745375028e+01 3.1462937677987341e+01 2.8578624543987587e+01 0 1 0
822 10 4 5.9999999999999998e-02 2.5512516560385414e+01 3.8309855111898351e+01 2.7641295354523631e+01 1 0 0
821 10 4 5.9999999999999998e-02 2.4534453956836000e+01 3.7069677350915356e+01 2.5954867883856501e+01 1 0 0
479 6 8 2.9999999999999999e-02 2.9561632254781554e+01 3.9944212046242995e+01 2.8225192751959476e+01 0 0 0
9862 111 2 -1.2000000000000000e-01 3.0537973745083509e+01 3.9460646356539904e+01 2.4522324020828648e+01 0 0 1
9274 105 4 5.9999999999999998e-02 2.6605081365879361e+01 3.2071282176794348e+01 2.5051430577272487e+01 1 0 1
9264 105 2 -1.2000000000000000e-01 2.6579053387077519e+01 3.1977350351483359e+01 2.7214664709226668e+01 1 0 1
9276 105 4 5.9999999999999998e-02 2.7089445417652453e+01 3.2267020179016555e+01 2.8074279980229381e+01 1 0 1
9263 105 2 -1.2000000000000000e-01 2.6865072141532515e+01 3.2684908282012515e+01 2.5885336455566378e+01 1 0 1
9273 105 4 5.9999999999999998e-02 2.7922683514216356e+01 3.2615855349390429e+01 2.5797249510589467e+01 1 0 1
9272 105 4 5.9999999999999998e-02 2.7387724796491671e+01 3.4693411498716166e+01 2.5980049752020253e+01 1 0 1
9262 105 2 -1.2000000000000000e-01 2.6533914222451664e+01 3.4189971316907204e+01 2.5678141712713604e+01 1 0 1
458 6 4 5.9999999999999998e-02 2.8631885893763361e+01 3.6271422499454530e+01 2.7558455584739818e+01 0 0 0
460 6 4 5.9999999999999998e-02 2.9258516473087273e+01 3.3996703593887673e+01 2.7592951717876581e+01 0 0 0
9271 105 4 5.9999999999999998e-02 2.5752669434271962e+01 3.4541281706877982e+01 2.6436663603517498e+01 1 0 1
450 6 2 -1.2000000000000000e-01 2.8466257893001853e+01 3.5693848905383206e+01 2.8469243267265067e+01 0 0 0
459 6 4 5.9999999999999998e-02 2.7477138396993638e+01 3.5230789710531965e+01 2.8305144077715841e+01 0 0 0
452 6 2 -1.2000000000000000e-01 3.1045572177158824e+01 3.5013896861597431e+01 2.8441971640283480e+01 0 0 0
462 6 4 5.9999999999999998e-02 3.1087154606140722e+01 3.6106421838910549e+01 2.8293670937892028e+01 0 0 0
9871 111 4 5.9999999999999998e-02 2.9928286632955547e+01 3.8504592482146876e+01 2.4684842882302725e+01 0 0 1
463 6 4 5.9999999999999998e-02 3.1450780178854899e+01 3.4506610160314239e+01 2.7544824299441274e+01 0 0 0
451 6 2 -1.2000000000000000e-01 2.9541207351790884e+01 3.4549021278699577e+01 2.8486376580226942e+01 0 0 0
9269 105 4 5.9999999999999998e-02 2.6027266058288127e+01 3.5689096291668093e+01 2.4063996739511964e+01 1 0 1
818 10 4 5.9999999999999998e-02 2.4420241700424310e+01 3.5997370680242369e+01 2.8164565903253706e+01 1 0 0
812 10 8 2.9999999999999999e-02 2.4955236891734177e+01 3.2521411386921514e+01 2.9931831674111272e+01 1 0 0
823 10 4 5.9999999999999998e-02 2.4000737870285310e+01 3.9453788761363327e+01 2.7828700149729418e+01 1 0 0
810 10 1 -1.7999999999999999e-01 2.4557759964759132e+01 3.8764201773123382e+01 2.7219802140274489e+01 1 0 0
824 10 4 5.9999999999999998e-02 2.4987351171580016e+01 3.9290650629607470e+01 2.6292752860800466e+01 1 0 0
9872 111 4 5.9999999999999998e-02 3.0943881254486843e+01 3.9723955954492361e+01 2.5509100759607843e+01 0 0 1
448 6 7 -3.3000000000000002e-01 2.8522368549391956e+01 3.7978238712352251e+01 2.9342691515582562e+01 0 0 0
461 6 4 5.9999999999999998e-02 2.9200945072264176e+01 3.3922483449681778e+01 2.9356860080410186e+01 0 0 0
449 6 5 5.1000000000000001e-01 2.8504385697407226e+01 3.6624858605144738e+01 2.9678050697437811e+01 0 0 0
453 6 2 -1.2000000000000000e-01 3.1811196533167589e+01 3.4617181958702190e+01 2.9687636160431424e+01 0 0 0
9261 105 2 -1.2000000000000000e-01 2.6252501035933296e+01 3.4682349714299512e+01 2.4210199154375786e+01 1 0 1
9259 105 7 -3.3000000000000002e-01 2.3967304953657997e+01 3.3656691949990076e+01 2.4253274727604460e+01 1 0 1
464 6 4 5.9999999999999998e-02 3.2110753820023149e+01 3.3648422498645274e+01 2.9655454113781495e+01 0 0 0
2929 33 4 5.9999999999999998e-02 3.6932800828561881e+01 3.2448053529173336e+01 2.7086429980682482e+01 0 0 0
2931 33 4 5.9999999999999998e-02 3.4420408883606129e+01 3.2255795585474921e+01 2.7266546257452326e+01 0 0 0
9873 111 4 5.9999999999999998e-02 3.2563014907871157e+01 3.8674941277525306e+01 2.4257639807620368e+01 0 0 1
2872 33 9 1.9000000000000000e-01 3.9635585608164760e+01 3.8409499829598218e+01 2.8923509308106247e+01 0 0 0
2916 33 9 1.9000000000000000e-01 3.9627905003457400e+01 3.6733491793333258e+01 2.7111077846978436e+01 0 0 0
2921 33 2 -1.2000000000000000e-01 3.4986745809406024e+01 3.2731468962978354e+01 2.8029000541168624e+01 0 0 0
4083 46 8 2.9999999999999999e-02 3.9242206448783982e+01 3.2525932433028188e+01 2.8721518012837453e+01 0 1 0
2888 33 4 5.9999999999999998e-02 3.5624033778968830e+01 3.8827745978160522e+01 2.6089782302680895e+01 0 0 0
2933 33 4 5.9999999999999998e-02 3.5785284626499184e+01 3.2054506818220815e+01 2.9981912345075294e+01 0 0 0
2932 33 4 5.9999999999999998e-02 3.4320645410161774e+01 3.3456104232809899e+01 2.8529646811671018e+01 0 0 0
2879 33 1 -1.7999999999999999e-01 3.4160999793876123e+01 3.6613738677845078e+01 2.6118293847135305e+01 0 0 0
2930 33 4 5.9999999999999998e-02 3.5888313350712295e+01 3.3794588705019052e+01 2.6436236247000362e+01 0 0 0
2920 33 2 -1.2000000000000000e-01 3.6211729085190939e+01 3.3307126818722104e+01 2.7346821638220202e+01 0 0 0
2919 33 2 -1.2000000000000000e-01 3.6964403163353239e+01 3.4359524588915797e+01 2.8099614412363248e+01 0 0 0
2918 33 5 5.1000000000000001e-01 3.8180983301878300e+01 3.4879091765988669e+01 2.7302899632506204e+01 0 0 0
2917 33 7 -3.3000000000000002e-01 3.8651846934807956e+01 3.6046931960861606e+01 2.7835027977790425e+01 0 0 0
2924 33 6 -4.2999999999999999e-01 3.8522100242332428e+01 3.4329928754224071e+01 2.6233530818022075e+01 0 0 0
2925 33 8 2.9999999999999999e-02 3.9107377309721414e+01 3.7446092467422922e+01 2.6428358146967252e+01 0 0 0
2927 33 4 5.9999999999999998e-02 3.6290614179714460e+01 3.5219258121784812e+01 2.8295214314453265e+01 0 0 0
2928 33 4 5.9999999999999998e-02 3.7296417298383084e+01 3.4045128815388409e+01 2.9055678614397308e+01 0 0 0
2892 33 4 5.9999999999999998e-02 3.4288649790675876e+01 3.6943060806728113e+01 2.5091555816316067e+01 0 0 0
2878 33 2 -1.2000000000000000e-01 3.4263959790009928e+01 3.7638704907035319e+01 2.7206243252920725e+01 0 0 0
2893 33 4 5.9999999999999998e-02 3.3169618457510410e+01 3.6189494048991172e+01 2.6076725667310345e+01 0 0 0
2890 33 4 5.9999999999999998e-02 3.4270395578838937e+01 3.7200934344350486e+01 2.8200836086653684e+01 0 0 0
2887 33 4 5.9999999999999998e-02 3.6366955592841464e+01 3.7730185802898035e+01 2.7219505063431448e+01 0 0 0
2889 33 4 5.9999999999999998e-02 3.3364033928308110e+01 3.8313521220003601e+01 2.7234252163230025e+01 0 0 0
2891 33 4 5.9999999999999998e-02 3.4915285888330537e+01 3.5903028974495207e+01 2.6418566894254809e+01 0 0 0
2877 33 2 -1.2000000000000000e-01 3.5573725808343156e+01 3.8477334052631321e+01 2.7128188358095031e+01 0 0 0
2873 33 7 -3.3000000000000002e-01 3.8562056709280903e+01 3.9025896131969489e+01 2.8195869056143877e+01 0 0 0
2881 33 8 2.9999999999999999e-02 3.9083930118660362e+01 3.7826861235840738e+01 2.9691952133252148e+01 0 0 0
570 7 4 5.9999999999999998e-02 3.8856390756452093e+01 3.6173227205533195e+01 2.4207692774093132e+01 0 0 0
468 6 4 5.9999999999999998e-02 3.3651429413179066e+01 3.5644741036966650e+01 2.9474637131046933e+01 0 0 0
569 7 4 5.9999999999999998e-02 3.7570384814132751e+01 3.7062413030997753e+01 2.4881295406130437e+01 0 0 0
2886 33 4 5.9999999999999998e-02 3.5500261444604803e+01 3.9350502629954910e+01 2.9109156105658478e+01 0 0 0
2876 33 2 -1.2000000000000000e-01 3.5548229908682330e+01 3.9680251487327794e+01 2.8052790852811981e+01 0 0 0
139 2 2 -1.2000000000000000e-01 3.0638027024309938e+01 2.5394233446131825e+01 2.9969087859490443e+01 0 0 0
378 5 4 5.9999999999999998e-02 2.5052578456249332e+01 2.8611988365876503e+01 3.0947783419674931e+01 1 0 0
26 1 5 5.1000000000000001e-01 2.7100941838770744e+01 2.4473246386597786e+01 3.3845716403721212e+01 0 0 0
375 5 4 5.9999999999999998e-02 2.4265708033429416e+01 2.5666222289957656e+01 3.1311693377878193e+01 1 0 0
2590 30 1 -1.7999999999999999e-01 2.4698198702501568e+01 2.9216998347019953e+01 3.5389284311695853e+01 1 0 0
2602 30 4 5.9999999999999998e-02 2.4535283680724181e+01 2.8555584981539315e+01 3.4596335329702171e+01 1 0 0
2604 30 4 5.9999999999999998e-02 2.5441971426323864e+01 2.9940566283583326e+01 3.4924495432068824e+01 1 0 0
861 10 4 5.9999999999999998e-02 3.0575728892973796e+01 3.1563228943375019e+01 3.0371166867589192e+01 1 0 0
365 5 1 -1.7999999999999999e-01 2.5061434496462077e+01 2.7535513631959546e+01 3.0780709947420522e+01 1 0 0
377 5 4 5.9999999999999998e-02 2.6070873664043724e+01 2.7052597267135845e+01 3.0842482844700974e+01 1 0 0
148 2 4 5.9999999999999998e-02 3.0263609728211428e+01 2.5592206244938126e+01 3.1026328971351830e+01 0 0 0
36 1 4 5.9999999999999998e-02 2.7894867576264577e+01 2.5334577562928661e+01 3.2187848824779714e+01 0 0 0
25 1 7 -3.3000000000000002e-01 2.5959276735769393e+01 2.4660687750816077e+01 3.4609938188277276e+01 0 0 0
29 1 2 -1.2000000000000000e-01 2.8803857456439982e+01 2.6848531925880852e+01 3.5180892550539895e+01 0 0 0
847 10 9 1.9000000000000000e-01 2.5631790627816461e+01 3.1717477653621053e+01 3.2444304307555001e+01 1 0 0
40 1 4 5.9999999999999998e-02 2.9509198347804794e+01 2.7649090092671258e+01 3.5228901555680949e+01 0 0 0
38 1 4 5.9999999999999998e-02 2.9583767321011642e+01 2.5313557161030584e+01 3.3658824859507192e+01 0 0 0
27 1 2 -1.2000000000000000e-01 2.7646124087771241e+01 2.5760211103669107e+01 3.3178825786267730e+01 0 0 0
35 1 4 5.9999999999999998e-02 2.6780304831914727e+01 2.6414315908674688e+01 3.3011610961326028e+01 0 0 0
28 1 2 -1.2000000000000000e-01 2.8979047716682174e+01 2.6204979020933951e+01 3.3740922669944027e+01 0 0 0
37 1 4 5.9999999999999998e-02 2.9515504652366179e+01 2.6928701458014512e+01 3.3085302285056329e+01 0 0 0
850 10 2 -1.2000000000000000e-01 2.8706294200011506e+01 3.0533022067167209e+01 3.0737998756162977e+01 1 0 0
859 10 4 5.9999999999999998e-02 2.9072298490444989e+01 2.9506247003537666e+01 3.0495271370596690e+01 1 0 0
848 10 7 -3.3000000000000002e-01 2.6717291805568752e+01 3.1585408338386429e+01 3.1578697635907595e+01 1 0 0
849 10 5 5.1000000000000001e-01 2.7539418830366035e+01 3.0570019368126971e+01 3.1704981923126184e+01 1 0 0
855 10 6 -4.2999999999999999e-01 2.7486307567186433e+01 2.9772443162801771e+01 3.2603035145541298e+01 1 0 0
863 10 4 5.9999999999999998e-02 3.0281117384101414e+01 3.0001608051638787e+01 3.2870472925924716e+01 1 0 0
852 10 2 -1.2000000000000000e-01 3.0562533254796826e+01 3.0953682056035305e+01 3.2536512778859922e+01 1 0 0
851 10 2 -1.2000000000000000e-01 2.9813751948842103e+01 3.1477245607105466e+01 3.1249611331293011e+01 1 0 0
39 1 4 5.9999999999999998e-02 2.7883371969504022e+01 2.7357237160261885e+01 3.5427591697192184e+01 0 0 0
857 10 8 2.9999999999999999e-02 2.4997348200599099e+01 3.0783288399219156e+01 3.2402935906125713e+01 1 0 0
862 10 4 5.9999999999999998e-02 3.1652463735305638e+01 3.0830248174463222e+01 3.2436620430100419e+01 1 0 0
856 10 8 2.9999999999999999e-02 2.6039889074916076e+01 3.1933459278658063e+01 3.3384232175794537e+01 1 0 0
866 10 4 5.9999999999999998e-02 3.0567677947505551e+01 3.0924239156901969e+01 3.5525125403256105e+01 1 0 0
364 5 2 -1.2000000000000000e-01 2.4081405508208448e+01 2.6734860693282091e+01 3.1609450221025611e+01 1 0 0
143 2 6 -4.2999999999999999e-01 3.1896737121620035e+01 2.8253892832880023e+01 3.0557333957386419e+01 0 0 0
853 10 2 -1.2000000000000000e-01 3.0470311937151283e+01 3.1992624785223974e+01 3.3671005366366785e+01 1 0 0
854 10 1 -1.7999999999999999e-01 3.1244485420761819e+01 3.1506980320882448e+01 3.4917853231187429e+01 1 0 0
376 5 4 5.9999999999999998e-02 2.4297520792010072e+01 2.6839933719042676e+01 3.2668676839978858e+01 1 0 0
130 2 4 5.9999999999999998e-02 3.4323085253090277e+01 3.1890259075806529e+01 3.2362018216134068e+01 0 0 0
1867 21 4 5.9999999999999998e-02 3.6407411626059009e+01 2.4045742432305403e+01 3.1031767435104783e+01 0 1 0
4040 46 4 5.9999999999999998e-02 3.8768135345164168e+01 2.7266673161990195e+01 3.0543041751186276e+01 0 1 0
2937 33 4 5.9999999999999998e-02 3.4097374261323843e+01 3.0519966002121713e+01 3.0344610175078657e+01 0 0 0
1791 21 8 2.9999999999999999e-02 3.8945192324309097e+01 2.4018381919338132e+01 3.4433234524299699e+01 0 1 0
1843 21 4 5.9999999999999998e-02 3.9221651625068873e+01 2.7882951283331206e+01 3.5454592025788017e+01 0 1 0
1855 21 1 -1.7999999999999999e-01 3.5340339756435625e+01 2.4109855470520856e+01 3.1089042215097333e+01 0 1 0
1866 21 4 5.9999999999999998e-02 3.3789913568987494e+01 2.4167214122392060e+01 3.2552991204768908e+01 0 1 0
144 2 8 2.9999999999999999e-02 3.2071644044866602e+01 2.8140545173739639e+01 3.3377072746181518e+01 0 0 0
100 2 8 2.9999999999999999e-02 3.2145811612970775e+01 2.6270185830796031e+01 3.5160525675674137e+01 0 0 0
146 2 4 5.9999999999999998e-02 3.2866295171230334e+01 2.5276645360825484e+01 3.0211714708721004e+01 0 0 0
4043 46 4 5.9999999999999998e-02 3.9072743544486286e+01 2.4847129783100097e+01 3.0287276400773340e+01 0 1 0
4032 46 2 -1.2000000000000000e-01 3.9823346344596601e+01 2.6919085946699290e+01 3.0584324405990120e+01 0 1 0
137 2 5 5.1000000000000001e-01 3.2234535731205462e+01 2.7075706197970597e+01 3.0884364590378304e+01 0 0 0
1868 21 4 5.9999999999999998e-02 3.5108119354634532e+01 2.5148894338902107e+01 3.1001127507553683e+01 0 1 0
128 2 4 5.9999999999999998e-02 3.6743388317777601e+01 3.1953125965220131e+01 3.4110200310828382e+01 0 0 0
167 2 8 2.9999999999999999e-02 3.2386476114279589e+01 2.8469182069568987e+01 3.5622231159555398e+01 0 0 0
136 2 7 -3.3000000000000002e-01 3.2841662741150472e+01 2.6747699984027371e+01 3.2025847259833412e+01 0 0 0
135 2 9 1.9000000000000000e-01 3.3035648125549272e+01 2.7744143835730142e+01 3.3068784409229131e+01 0 0 0
101 2 8 2.9999999999999999e-02 3.3205643629316064e+01 2.5375082858686831e+01 3.4146722566175157e+01 0 0 0
91 2 9 1.9000000000000000e-01 3.3167142725718406e+01 2.6077850140718184e+01 3.4913250940836392e+01 0 0 0
90 2 3 0.0000000000000000e+00 3.3797496006027679e+01 2.7367535788140607e+01 3.4316070509165883e+01 0 0 0
126 2 4 5.9999999999999998e-02 3.6194267759362958e+01 3.0210029132240685e+01 3.1542269776410173e+01 0 0 0
145 2 8 2.9999999999999999e-02 3.3718602930648984e+01 2.8530099582898075e+01 3.2657802535411875e+01 0 0 0
117 2 2 -1.2000000000000000e-01 3.6826244937084965e+01 3.0635280101992937e+01 3.2352829817001798e+01 0 0 0
123 2 8 2.9999999999999999e-02 3.5416523265005132e+01 2.6592939410729795e+01 3.3151391214502070e+01 0 0 0
121 2 6 -4.2999999999999999e-01 3.7734842086349587e+01 2.7297509814702565e+01 3.3154149547017965e+01 0 0 0
113 2 9 1.9000000000000000e-01 3.5263226995525343e+01 2.7265645878416962e+01 3.4014295100686766e+01 0 0 0
114 2 7 -3.3000000000000002e-01 3.5953907446582676e+01 2.8487894001715674e+01 3.3745816535710887e+01 0 0 0
115 2 5 5.1000000000000001e-01 3.7183248001345426e+01 2.8342748077466219e+01 3.3334318020818941e+01 0 0 0
116 2 2 -1.2000000000000000e-01 3.7840002490726995e+01 2.9614616277256800e+01 3.2887612772240722e+01 0 0 0
125 2 4 5.9999999999999998e-02 3.8626567837366238e+01 3.0017842112717624e+01 3.3558943051513431e+01 0 0 0
124 2 4 5.9999999999999998e-02 3.8524344785427658e+01 2.9512890380475916e+01 3.2065779567932069e+01 0 0 0
122 2 8 2.9999999999999999e-02 3.5886790954431206e+01 2.6743637824110454e+01 3.4660673782804658e+01 0 0 0
166 2 8 2.9999999999999999e-02 3.3581486131241007e+01 2.9512214222231030e+01 3.4878186061055786e+01 0 0 0
157 2 9 1.9000000000000000e-01 3.3445310263236827e+01 2.8576381452606263e+01 3.5342554728438976e+01 0 0 0
118 2 2 -1.2000000000000000e-01 3.6053684776178656e+01 3.1376369603078011e+01 3.3492332258459335e+01 0 0 0
129 2 4 5.9999999999999998e-02 3.5482403269113888e+01 3.0793635828054168e+01 3.4187748477205226e+01 0 0 0
127 2 4 5.9999999999999998e-02 3.7358951805659032e+01 3.1463877491044286e+01 3.1875780301717626e+01 0 0 0
868 10 4 5.9999999999999998e-02 3.2191394789568648e+01 3.0969593775425047e+01 3.4616620745083893e+01 1 0 0
519 6 2 -1.2000000000000000e-01 3.1175543389478829e+01 3.7603782253369836e+01 3.3296986012830374e+01 0 0 0
864 10 4 5.9999999999999998e-02 2.9367295490223466e+01 3.2087043017532032e+01 3.3841595338838850e+01 1 0 0
860 10 4 5.9999999999999998e-02 2.9370702377550394e+01 3.2460389533709417e+01 3.1499957824906254e+01 1 0 0
803 10 9 1.9000000000000000e-01 2.4133896432692243e+01 3.2599519537959225e+01 3.0623869545771498e+01 1 0 0
529 6 4 5.9999999999999998e-02 3.1297586209794368e+01 3.9038914130830193e+01 3.4915762247989527e+01 0 0 0
2776 32 4 5.9999999999999998e-02 3.6139869294533696e+01 3.5597509210599554e+01 3.5830372224466544e+01 0 0 0
867 10 4 5.9999999999999998e-02 3.1546523123163219e+01 3.2403664598941255e+01 3.5434789363886544e+01 1 0 0
826 10 7 -3.3000000000000002e-01 2.4217367869100212e+01 3.3148473540250862e+01 3.4313503925718116e+01 1 0 0
532 6 4 5.9999999999999998e-02 3.0427465061488569e+01 3.6291889229665621e+01 3.5117496730398251e+01 0 0 0
880 10 4 5.9999999999999998e-02 2.4063691661480036e+01 3.7703997098590868e+01 3.1304539496941540e+01 1 0 0
465 6 4 5.9999999999999998e-02 3.1108824410152380e+01 3.4663742000069554e+01 3.0536075969012739e+01 0 0 0
802 10 3 0.0000000000000000e+00 2.4775408915040376e+01 3.2935221990704399e+01 3.2017995791253547e+01 1 0 0
528 6 4 5.9999999999999998e-02 3.0016051594224582e+01 3.9163544455355854e+01 3.3844536202201027e+01 0 0 0
865 10 4 5.9999999999999998e-02 3.0746606412792890e+01 3.2990811667061926e+01 3.3361784169850218e+01 1 0 0
518 6 2 -1.2000000000000000e-01 3.1065999699624701e+01 3.8989453236524142e+01 3.3857139722396113e+01 0 0 0
877 10 6 -4.2999999999999999e-01 2.4921274062175623e+01 3.6089044538093646e+01 3.3940057478013131e+01 1 0 0
870 10 7 -3.3000000000000002e-01 2.5075303884443940e+01 3.5419900627043383e+01 3.1745213621592413e+01 1 0 0
871 10 5 5.1000000000000001e-01 2.4769336940286721e+01 3.6282934021181703e+01 3.2717898354976441e+01 1 0 0
878 10 8 2.9999999999999999e-02 2.6166846054998977e+01 3.4057492871960314e+01 3.3086577967644985e+01 1 0 0
869 10 9 1.9000000000000000e-01 2.5732246737172051e+01 3.4156627838956439e+01 3.2044393812272730e+01 1 0 0
879 10 8 2.9999999999999999e-02 2.6574481346124362e+01 3.3997317121098654e+01 3.1375106910220591e+01 1 0 0
455 6 6 -4.2999999999999999e-01 2.8444884317698836e+01 3.6192608041574807e+01 3.0847435941012968e+01 0 0 0
456 6 8 2.9999999999999999e-02 2.9113534870641310e+01 3.8728370516332262e+01 3.1168674207289762e+01 0 0 0
447 6 9 1.9000000000000000e-01 2.8328028101544504e+01 3.8862883376421273e+01 3.0431682413668725e+01 0 0 0
457 6 8 2.9999999999999999e-02 2.7347677395693026e+01 3.8750082943580068e+01 3.0937566298959911e+01 0 0 0
520 6 1 -1.7999999999999999e-01 3.0323531964752178e+01 3.6523943125315441e+01 3.4053612126445266e+01 0 0 0
534 6 4 5.9999999999999998e-02 2.9284649526866367e+01 3.6629419453440363e+01 3.3873871598834974e+01 0 0 0
531 6 4 5.9999999999999998e-02 3.0896687537653847e+01 3.7654999872060003e+01 3.2188361103951152e+01 0 0 0
533 6 4 5.9999999999999998e-02 3.0475416751355429e+01 3.5605231882236282e+01 3.3532337473610106e+01 0 0 0
839 10 4 5.9999999999999998e-02 2.5873648955139025e+01 3.2371959193619318e+01 3.5951631537404026e+01 1 0 0
454 6 1 -1.7999999999999999e-01 3.2825843331015150e+01 3.5663263707188804e+01 3.0183034771539539e+01 0 0 0
133 2 4 5.9999999999999998e-02 3.3937529259037014e+01 3.4033316657859636e+01 3.3627295724346347e+01 0 0 0
120 2 1 -1.7999999999999999e-01 3.4721928845356160e+01 3.3365315911323947e+01 3.3969471943308392e+01 0 0 0
4055 46 2 -1.2000000000000000e-01 3.7960807652555744e+01 3.5296852333120249e+01 3.1847438594254157e+01 0 1 0
4053 46 5 5.1000000000000001e-01 3.9761301690991502e+01 3.3493247912890347e+01 3.2194285449301987e+01 0 1 0
4058 46 1 -1.7999999999999999e-01 3.5877459813280510e+01 3.8596040633426696e+01 3.2196071356097569e+01 0 1 0
4070 46 4 5.9999999999999998e-02 3.4982141928411586e+01 3.8845488528012680e+01 3.1601706690533199e+01 0 1 0
467 6 4 5.9999999999999998e-02 3.2407748464069101e+01 3.6638442873735961e+01 3.0424988252308278e+01 0 0 0
4063 46 4 5.9999999999999998e-02 3.9624145880223082e+01 3.5377135313365244e+01 3.3227984376592133e+01 0 1 0
4059 46 6 -4.2999999999999999e-01 3.9857607129295438e+01 3.2783856642591005e+01 3.3221511439904390e+01 0 1 0
527 6 4 5.9999999999999998e-02 3.2303399052664950e+01 3.9844586175556799e+01 3.2192041254918280e+01 0 0 0
466 6 4 5.9999999999999998e-02 3.3231921127153740e+01 3.5131571504399375e+01 3.1129612964425434e+01 0 0 0
4064 46 4 5.9999999999999998e-02 3.7225061929293830e+01 3.4608011050404627e+01 3.2218306486960188e+01 0 1 0
2848 32 4 5.9999999999999998e-02 3.8072125349145431e+01 3.9516742855147356e+01 3.5752566995419997e+01 0 0 0
4068 46 4 5.9999999999999998e-02 3.5509105358370682e+01 3.6425526723772869e+01 3.1841465844306569e+01 0 1 0
134 2 4 5.9999999999999998e-02 3.5637820284282149e+01 3.3841714737205422e+01 3.4402690448085693e+01 0 0 0
4054 46 2 -1.2000000000000000e-01 3.9437284944682510e+01 3.4955045398450615e+01 3.2267299301330439e+01 0 1 0
4066 46 4 5.9999999999999998e-02 3.8253637587638181e+01 3.7468888028164322e+01 3.2167101299803946e+01 0 1 0
4057 46 2 -1.2000000000000000e-01 3.6268547561056472e+01 3.7192433118902755e+01 3.1725879994542616e+01 0 1 0
4072 46 4 5.9999999999999998e-02 3.5604582596051166e+01 3.8573244603180065e+01 3.3275737704924552e+01 0 1 0
4069 46 4 5.9999999999999998e-02 3.6377042058115101e+01 3.7208640829513229e+01 3.0609744806193138e+01 0 1 0
119 2 2 -1.2000000000000000e-01 3.5102443340307524e+01 3.2411518225663137e+01 3.2894354277392253e+01 0 0 0
131 2 4 5.9999999999999998e-02 3.5501014992690749e+01 3.3099548920854019e+01 3.2191915349201906e+01 0 0 0
132 2 4 5.9999999999999998e-02 3.4362563124311187e+01 3.2939574516115762e+01 3.4885698604775740e+01 0 0 0
4056 46 2 -1.2000000000000000e-01 3.7538096301929379e+01 3.6699421953498160e+01 3.2339622830944251e+01 0 1 0
4067 46 4 5.9999999999999998e-02 3.7488167606125899e+01 3.6764565189071192e+01 3.3436337651314943e+01 0 1 0
4071 46 4 5.9999999999999998e-02 3.6633538929603930e+01 3.9242312003891954e+01 3.1904608213875349e+01 0 1 0