LAMMPS data file via write_data, version 5 Jun 2019, timestep = 200018

11125 atoms
10 atom types
11000 bonds
6 bond types
20750 angles
11 angle types
28000 dihedrals
14 dihedral types
500 impropers
1 improper types

2.3849478919008842e+01 7.2150521080989279e+01 xlo xhi
2.3849478919008842e+01 7.2150521080989279e+01 ylo yhi
2.3849478919008842e+01 7.2150521080989279e+01 zlo zhi

Masses

1 12.011
2 1.008
3 12.011
4 12.011
5 12.011
6 1.008
7 1.008
8 12.011
9 15.999
10 15.999

Pair Coeffs # lj/cut/coul/cut/omp

1 0.066 3.5
2 0.015 2.42
3 0.066 3.5
4 0.066 3.5
5 0.066 3.5
6 0.03 2.5
7 0.0262906 2.5
8 0.105 3.1875
9 0.168 3.108
10 0.17 2.55

Bond Coeffs # harmonic/omp

1 570 1.229
2 317 1.522
3 214 1.327
4 268 1.529
5 320 1.41
6 340 1.09

Angle Coeffs # harmonic/omp

1 80 120.4
2 81 111.4
3 83 123.4
4 58.35 112.7
5 63 111.1
6 50 109.5
7 33 107.8
8 35 109.5
9 35 109.5
10 37.5 110.7
11 83 116.9

Improper Coeffs # harmonic/omp

1 10.5 180

Atoms # full

853 10 5 -1.4799999999999999e-01 2.7614812902215355e+01 2.9233030476656094e+01 2.9426097441772580e+01 1 0 0
864 10 7 7.3999999999999996e-02 2.6521500019595635e+01 2.9148997782435615e+01 2.9415851822348117e+01 1 0 0
852 10 5 -1.4799999999999999e-01 2.8234270108062656e+01 2.9503933607646012e+01 2.8050206663796615e+01 1 0 0
860 10 7 7.3999999999999996e-02 2.8457272876918836e+01 3.1619685822227314e+01 2.8408548023128187e+01 1 0 0
1932 22 7 7.3999999999999996e-02 2.9457895374130270e+01 2.6485366124426410e+01 2.4787896635463216e+01 0 1 0
1921 22 5 -1.4799999999999999e-01 3.0443911224174585e+01 2.6952653664556003e+01 2.4770983322854303e+01 0 1 0
863 10 7 7.3999999999999996e-02 2.7736952428710243e+01 2.8783562605354788e+01 2.7347231392567178e+01 1 0 0
851 10 5 -1.4799999999999999e-01 2.8048836451424549e+01 3.0926365994674388e+01 2.7655051484077031e+01 1 0 0
859 10 7 7.3999999999999996e-02 2.5967436584158079e+01 3.1283433266794365e+01 2.8384523648112619e+01 1 0 0
861 10 7 7.3999999999999996e-02 2.8564378132616827e+01 3.1068608014803878e+01 2.6713021697944843e+01 1 0 0
1935 22 6 7.3999999999999996e-02 2.9896391752666776e+01 2.8773704500717631e+01 2.5733332559486421e+01 0 1 0
862 10 7 7.3999999999999996e-02 2.9300435594853454e+01 2.9218467633916990e+01 2.8185125902034482e+01 1 0 0
858 10 7 7.3999999999999996e-02 2.6221554072800451e+01 3.0626802811141850e+01 2.6809486197687090e+01 1 0 0
9298 105 7 7.3999999999999996e-02 3.1268635905403240e+01 3.0738086115053569e+01 2.5804044051041121e+01 1 0 1
9286 105 5 -1.4799999999999999e-01 3.1443392589173477e+01 3.1645774205380004e+01 2.5287660863664790e+01 1 0 1
1922 22 4 -2.2200000000000000e-01 3.0532394479507424e+01 2.7930440768479709e+01 2.5971325857665683e+01 0 1 0
1934 22 6 7.3999999999999996e-02 3.0096039386670643e+01 2.7459026817010191e+01 2.6845932315277160e+01 0 1 0
1920 22 5 -1.4799999999999999e-01 3.1571779133285666e+01 2.5874070273754629e+01 2.4978079401537137e+01 0 1 0
1931 22 7 7.3999999999999996e-02 3.1525446599243303e+01 2.5329947462390386e+01 2.5943686731381391e+01 0 1 0
169 2 7 7.3999999999999996e-02 2.7587493122264796e+01 2.5031630596704240e+01 2.7809812719942343e+01 0 0 0
57 1 7 7.3999999999999996e-02 2.4562668682232985e+01 2.4385848386618413e+01 2.8335623626173021e+01 0 0 0
1790 21 9 -5.5000000000000004e-01 3.7384155855723151e+01 2.3880537633480188e+01 3.5253938914027700e+01 0 1 0
1936 22 6 7.3999999999999996e-02 3.1499851523288516e+01 2.8266720790481635e+01 2.6214828303626927e+01 0 1 0
850 10 5 -1.4799999999999999e-01 2.6597940176585499e+01 3.1314917353298497e+01 2.7465470229360008e+01 1 0 0
1919 22 5 -1.4799999999999999e-01 3.1653932471997891e+01 2.4761987816363099e+01 2.3941189615742779e+01 0 1 0
1823 21 6 7.3999999999999996e-02 3.1542006919702320e+01 2.3984849401637469e+01 2.8185370645592062e+01 0 1 0
9338 105 7 7.3999999999999996e-02 2.4189140208086680e+01 2.7193064710303311e+01 2.6600830562783536e+01 1 0 1
2620 30 7 7.3999999999999996e-02 2.3892859030143214e+01 3.2687394351417794e+01 3.3383775015817541e+01 1 0 0
867 10 6 7.3999999999999996e-02 2.8096426453543931e+01 2.7070012730701585e+01 2.9574332182592087e+01 1 0 0
9069 102 7 7.3999999999999996e-02 3.0926416747592533e+01 3.0686216579074532e+01 2.9228141327829618e+01 0 0 1
9060 102 5 -1.4799999999999999e-01 3.1668836269920835e+01 3.0821156970325127e+01 2.9974300797762467e+01 0 0 1
9293 105 7 7.3999999999999996e-02 2.8957371288065797e+01 3.0871872035870272e+01 2.4515604666788430e+01 1 0 1
9285 105 5 -1.4799999999999999e-01 3.0802501288726759e+01 3.1680485301098663e+01 2.3850577413489642e+01 1 0 1
159 2 8 7.5000000000000000e-01 2.7989468743316884e+01 2.4129437942789021e+01 2.9779546917646456e+01 0 0 0
160 2 5 -1.4799999999999999e-01 2.8310142139218883e+01 2.4356893529113631e+01 2.8306153033332905e+01 0 0 0
1929 22 7 7.3999999999999996e-02 3.0715841247487013e+01 2.4271667612683927e+01 2.3902669606080288e+01 0 1 0
168 2 7 7.3999999999999996e-02 2.9232757287894355e+01 2.4907460603292826e+01 2.8258062112455772e+01 0 0 0
9340 105 7 7.3999999999999996e-02 2.4678319953763300e+01 2.8557115621070281e+01 2.8722722540335301e+01 1 0 1
9337 105 7 7.3999999999999996e-02 2.4122476861302307e+01 2.8950928248672909e+01 2.6254517307109801e+01 1 0 1
1930 22 7 7.3999999999999996e-02 3.2565923942223641e+01 2.6375089856272602e+01 2.4915922093803285e+01 0 1 0
9065 102 9 -5.5000000000000004e-01 3.3397491928947971e+01 3.0590086511912904e+01 2.8240934895359533e+01 0 0 1
10843 122 5 -1.4799999999999999e-01 3.6201700109116004e+01 2.6271647046769910e+01 2.7688894414901124e+01 0 1 1
10849 122 7 7.3999999999999996e-02 3.7215405129629708e+01 2.8533168234386316e+01 2.6644885514151490e+01 0 1 1
10840 122 5 -1.4799999999999999e-01 3.6298742580768618e+01 2.9101653742394895e+01 2.6670794500761826e+01 0 1 1
10844 122 4 -2.2200000000000000e-01 3.6970503697122041e+01 2.5508405723914944e+01 2.6597565100340685e+01 0 1 1
10850 122 7 7.3999999999999996e-02 3.5166238779911623e+01 2.7916367180408770e+01 2.5273713434807000e+01 0 1 1
10842 122 5 -1.4799999999999999e-01 3.4907478379358956e+01 2.6971320745000206e+01 2.7186621165300345e+01 0 1 1
10852 122 7 7.3999999999999996e-02 3.4153236964624796e+01 2.6207207705244357e+01 2.6788583764376540e+01 0 1 1
10853 122 7 7.3999999999999996e-02 3.4319983874769434e+01 2.7316758552109608e+01 2.8076293704610812e+01 0 1 1
10839 122 8 7.5000000000000000e-01 3.6513156502394068e+01 3.0215295148256665e+01 2.5653893646786170e+01 0 1 1
10841 122 5 -1.4799999999999999e-01 3.5078543018745826e+01 2.8195079943937269e+01 2.6289559746121864e+01 0 1 1
10848 122 7 7.3999999999999996e-02 3.6212019349941407e+01 2.9506421889037689e+01 2.7733403391393974e+01 0 1 1
10851 122 7 7.3999999999999996e-02 3.4124970602819644e+01 2.8803234014259825e+01 2.6311810252774546e+01 0 1 1
10838 122 10 -4.5000000000000001e-01 3.5661691542383608e+01 3.0222007260229937e+01 2.4612999895328930e+01 0 1 1
10845 122 9 -5.5000000000000004e-01 3.7379009539590747e+01 3.1048485227696879e+01 2.5799660281701037e+01 0 1 1
10858 122 6 7.3999999999999996e-02 3.7058863258622914e+01 2.6200586980171920e+01 2.5743605522370139e+01 0 1 1
10855 122 7 7.3999999999999996e-02 3.6886998295517337e+01 2.6970250494445274e+01 2.8197803645042452e+01 0 1 1
10854 122 7 7.3999999999999996e-02 3.5914069653323430e+01 2.5452645770749125e+01 2.8482907454785490e+01 0 1 1
9023 102 2 2.9999999999999999e-02 3.6798127087874335e+01 3.0813951654178496e+01 2.9093869494198920e+01 0 0 1
9059 102 8 7.5000000000000000e-01 3.2976184408427144e+01 3.1153314318777191e+01 2.9288624057411390e+01 0 0 1
10857 122 6 7.3999999999999996e-02 3.7959935601199490e+01 2.5201667913235262e+01 2.6818394693503841e+01 0 1 1
9297 105 7 7.3999999999999996e-02 3.2563283389294867e+01 3.1620813058466094e+01 2.5373351078251023e+01 1 0 1
10856 122 6 7.3999999999999996e-02 3.6400765057677305e+01 2.4685544178904834e+01 2.6203110479570036e+01 0 1 1
9021 102 9 -5.5000000000000004e-01 3.8562479717785259e+01 2.9252449235180087e+01 2.8951310514803250e+01 0 0 1
1824 21 6 7.3999999999999996e-02 3.3325019318449058e+01 2.4482234975477986e+01 2.8372743633150534e+01 0 1 0
10808 122 7 7.3999999999999996e-02 3.9178319868322063e+01 2.5786517330444383e+01 2.4605574319264832e+01 0 1 1
10804 122 7 7.3999999999999996e-02 3.9745855869202266e+01 2.9526271350301155e+01 2.4817784829171135e+01 0 1 1
1928 22 7 7.3999999999999996e-02 3.2463339782121565e+01 2.4127608814086063e+01 2.4240159169642560e+01 0 1 0
10798 122 5 -1.4799999999999999e-01 3.9736162108639498e+01 2.6743050691922058e+01 2.4594455634252508e+01 0 1 1
10807 122 7 7.3999999999999996e-02 3.7950191469466688e+01 2.7883823393830514e+01 2.4079240969744976e+01 0 1 1
10809 122 7 7.3999999999999996e-02 3.9823724310572480e+01 2.7139641960752225e+01 2.5595787316870453e+01 0 1 1
9300 105 6 7.3999999999999996e-02 3.1363263051572552e+01 3.3797157907452963e+01 2.5818270064322135e+01 1 0 1
9386 106 7 7.3999999999999996e-02 2.5674953932862600e+01 3.5838332342292397e+01 2.4284871565538687e+01 0 0 1
873 10 5 -1.4799999999999999e-01 2.6420626723204919e+01 3.9762713461995595e+01 2.9770432534196537e+01 1 0 0
9387 106 7 7.3999999999999996e-02 2.7259393241916246e+01 3.5778779217156199e+01 2.4905500735058563e+01 0 0 1
848 10 10 -4.5000000000000001e-01 2.5379306872403454e+01 3.3345939784274151e+01 2.7384787530165969e+01 1 0 0
849 10 8 7.5000000000000000e-01 2.6485426651780898e+01 3.2754709577072369e+01 2.6914475977611279e+01 1 0 0
847 10 3 1.9000000000000000e-01 2.5204301882509590e+01 3.4754113458071693e+01 2.7155337126977511e+01 1 0 0
857 10 2 2.9999999999999999e-02 2.6183057864319593e+01 3.5237528477377786e+01 2.6947204468138263e+01 1 0 0
856 10 2 2.9999999999999999e-02 2.4611973543376262e+01 3.4782854435866959e+01 2.6264654219970470e+01 1 0 0
855 10 9 -5.5000000000000004e-01 2.7294304574019034e+01 3.3137716346676079e+01 2.6108488430296134e+01 1 0 0
870 10 10 -4.5000000000000001e-01 2.4759702437549535e+01 3.7873144294861646e+01 2.8410128938809695e+01 1 0 0
802 10 1 0.0000000000000000e+00 2.4403019148093332e+01 3.5485955087543793e+01 2.8306527776263025e+01 1 0 0
877 10 9 -5.5000000000000004e-01 2.5902719012925445e+01 3.8219610138105494e+01 2.6472314074960110e+01 1 0 0
837 10 7 7.3999999999999996e-02 2.9054489924443246e+01 3.5723701190029338e+01 2.7466807731100431e+01 1 0 0
871 10 8 7.5000000000000000e-01 2.5545402843133679e+01 3.8606060936268243e+01 2.7622190352355656e+01 1 0 0
836 10 7 7.3999999999999996e-02 2.8657938983802261e+01 3.7118965493868878e+01 2.8199897175049401e+01 1 0 0
828 10 5 -1.4799999999999999e-01 2.8889436753348043e+01 3.6127048375132624e+01 2.8459372140813301e+01 1 0 0
9299 105 6 7.3999999999999996e-02 2.9899969873999005e+01 3.2960731838581196e+01 2.6075701897422526e+01 1 0 1
826 10 10 -4.5000000000000001e-01 2.6545606202008621e+01 3.6102574677703842e+01 2.9006828076236342e+01 1 0 0
9287 105 4 -2.2200000000000000e-01 3.0997438832526488e+01 3.2832746012782465e+01 2.6099117705529419e+01 1 0 1
827 10 8 7.5000000000000000e-01 2.7644883393955180e+01 3.5389087559455099e+01 2.9000254697435771e+01 1 0 0
832 10 4 -2.2200000000000000e-01 3.0946274920005884e+01 3.8663330450640593e+01 2.7469068373659205e+01 1 0 0
9380 106 7 7.3999999999999996e-02 2.9076541975992786e+01 3.8040414449645077e+01 2.4454813945530738e+01 0 0 1
840 10 7 7.3999999999999996e-02 3.1579669483560032e+01 3.5755569806435631e+01 2.7666732238881757e+01 1 0 0
830 10 5 -1.4799999999999999e-01 3.1425477442741375e+01 3.6303005981032506e+01 2.8557402896027277e+01 1 0 0
844 10 6 7.3999999999999996e-02 3.0991788269489888e+01 3.8411991465358234e+01 2.6449563785746211e+01 1 0 0
846 10 6 7.3999999999999996e-02 2.9928088840072078e+01 3.8890663924331470e+01 2.7744878833579559e+01 1 0 0
9301 105 6 7.3999999999999996e-02 3.1320589851591809e+01 3.2702082098497989e+01 2.7140992233894778e+01 1 0 1
845 10 6 7.3999999999999996e-02 3.1325854191684069e+01 3.9601431281576211e+01 2.7481088778237346e+01 1 0 0
831 10 5 -1.4799999999999999e-01 3.1769991146321416e+01 3.7812106028811428e+01 2.8380229661859573e+01 1 0 0
825 10 3 1.9000000000000000e-01 2.5344530749263214e+01 3.5559925735604352e+01 2.9501279369723861e+01 1 0 0
829 10 5 -1.4799999999999999e-01 3.0111566416454487e+01 3.5970428123192910e+01 2.9295680784492120e+01 1 0 0
833 10 9 -5.5000000000000004e-01 2.7810194887346359e+01 3.4276028699528261e+01 2.9452796436745700e+01 1 0 0
9385 106 7 7.3999999999999996e-02 2.6847357974708128e+01 3.8031367181653778e+01 2.4056630312862143e+01 0 0 1
9375 106 5 -1.4799999999999999e-01 2.6664311464920825e+01 3.5892927744468217e+01 2.3929514452805801e+01 0 0 1
869 10 3 1.9000000000000000e-01 2.4013098281504469e+01 3.6847251000229903e+01 2.7801727761990506e+01 1 0 0
843 10 7 7.3999999999999996e-02 3.1886567383777013e+01 3.8253778896422830e+01 2.9395883818535701e+01 1 0 0
872 10 5 -1.4799999999999999e-01 2.6145790088191198e+01 3.9857869118584702e+01 2.8230818422899706e+01 1 0 0
838 10 7 7.3999999999999996e-02 3.0216530292514751e+01 3.4936448758394164e+01 2.9626101409958874e+01 1 0 0
9294 105 7 7.3999999999999996e-02 2.8907806195554386e+01 3.2563157107223049e+01 2.4022075450626510e+01 1 0 1
9381 106 7 7.3999999999999996e-02 2.9378457068398234e+01 3.6461814754898185e+01 2.4278153178837318e+01 0 0 1
878 10 2 2.9999999999999999e-02 2.4077016113143255e+01 3.6892422196504796e+01 2.6722770755195388e+01 1 0 0
2933 33 7 7.3999999999999996e-02 3.6443940942907389e+01 3.9821141018794002e+01 2.9662848530471557e+01 0 0 0
9067 102 2 2.9999999999999999e-02 3.5300279758287751e+01 3.1978624147808276e+01 2.8666022826959356e+01 0 0 1
9057 102 3 1.9000000000000000e-01 3.4936439971861070e+01 3.2440056119879102e+01 2.9620481168332667e+01 0 0 1
8996 102 5 -1.4799999999999999e-01 3.9088897431995818e+01 3.4646464501800281e+01 2.6008308951705679e+01 0 0 1
7295 82 7 7.3999999999999996e-02 3.4670590599036615e+01 3.9192148080070403e+01 2.4798666974268627e+01 0 0 1
842 10 7 7.3999999999999996e-02 3.2717897404744335e+01 3.7838814764191582e+01 2.7898630766945644e+01 1 0 0
9006 102 7 7.3999999999999996e-02 3.8760641319549265e+01 3.5665018220760501e+01 2.5766375636392453e+01 0 0 1
9005 102 7 7.3999999999999996e-02 3.8393638043269299e+01 3.3133291806493745e+01 2.7319598581190736e+01 0 0 1
10830 122 7 7.3999999999999996e-02 3.4817534233536598e+01 3.6720527627290238e+01 2.4157338492983339e+01 0 1 1
9004 102 7 7.3999999999999996e-02 3.7513124638393251e+01 3.4606920427915419e+01 2.7305292562629116e+01 0 0 1
2932 33 7 7.3999999999999996e-02 3.7857875015555571e+01 3.9798371008434493e+01 2.7980758613552581e+01 0 0 0
10820 122 5 -1.4799999999999999e-01 3.5165668405469603e+01 3.5827484091286060e+01 2.4666243895610275e+01 0 1 1
10821 122 5 -1.4799999999999999e-01 3.4083426134004227e+01 3.5207351223532768e+01 2.5553175579442087e+01 0 1 1
10835 122 6 7.3999999999999996e-02 3.3645546593545660e+01 3.3606296826873482e+01 2.6933690799034689e+01 0 1 1
10834 122 6 7.3999999999999996e-02 3.4578590919986837e+01 3.3118831181373515e+01 2.5568023839485587e+01 0 1 1
8994 102 5 -1.4799999999999999e-01 3.9211848790128101e+01 3.4686599129027357e+01 2.8579991172877243e+01 0 0 1
10822 122 4 -2.2200000000000000e-01 3.4466613232586695e+01 3.3924751444475483e+01 2.6313796365668480e+01 0 1 1
10836 122 6 7.3999999999999996e-02 3.5330735620463486e+01 3.4032902592557917e+01 2.6979392358237209e+01 0 1 1
10832 122 7 7.3999999999999996e-02 3.3315951098757587e+01 3.5011802548015808e+01 2.4862687131266235e+01 0 1 1
10833 122 7 7.3999999999999996e-02 3.3751746205351019e+01 3.6000778925408063e+01 2.6151996977064780e+01 0 1 1
10831 122 7 7.3999999999999996e-02 3.5958399471456815e+01 3.6127748517556569e+01 2.5235668550125929e+01 0 1 1
2921 33 5 -1.4799999999999999e-01 3.8225169486423823e+01 3.9138015660570602e+01 2.8730130771133865e+01 0 0 0
2920 33 5 -1.4799999999999999e-01 3.9445108415390990e+01 3.9638276433309592e+01 2.9465171574709171e+01 0 0 0
8992 102 10 -4.5000000000000001e-01 3.7452309942702449e+01 3.3509641343293623e+01 2.9820392615317253e+01 0 0 1
7294 82 7 7.3999999999999996e-02 3.4364188340482400e+01 3.9307862791122474e+01 2.6532442994141707e+01 0 0 1
8995 102 5 -1.4799999999999999e-01 3.8528731303299544e+01 3.4187478131040635e+01 2.7338225131125139e+01 0 0 1
2936 33 6 7.3999999999999996e-02 3.5857281416841232e+01 3.7767757521667271e+01 2.8166582758773306e+01 0 0 0
9007 102 7 7.3999999999999996e-02 3.8621045022085859e+01 3.4102432573431308e+01 2.5202616120330838e+01 0 0 1
2931 33 7 7.3999999999999996e-02 3.8480447825227898e+01 3.8176923998692821e+01 2.8196723085908872e+01 0 0 0
9066 102 2 2.9999999999999999e-02 3.5053504066681889e+01 3.3543261146709277e+01 2.9468461383094940e+01 0 0 1
2935 33 6 7.3999999999999996e-02 3.6663832391598795e+01 3.6862347311539331e+01 2.9426938752554914e+01 0 0 0
2937 33 6 7.3999999999999996e-02 3.5320859545363113e+01 3.7827089547202377e+01 2.9821646668678312e+01 0 0 0
2922 33 5 -1.4799999999999999e-01 3.7029615443175885e+01 3.8942216966167464e+01 2.9651430025129219e+01 0 0 0
841 10 7 7.3999999999999996e-02 3.2147704339059459e+01 3.5944686667080688e+01 2.9243818536787188e+01 1 0 0
2923 33 4 -2.2200000000000000e-01 3.6180289698602373e+01 3.7822599707644756e+01 2.9186595732735810e+01 0 0 0
9411 106 6 7.3999999999999996e-02 3.9756293191857303e+01 3.7360092444389359e+01 2.4205587983747666e+01 0 0 1
7283 82 5 -1.4799999999999999e-01 3.4532052695015572e+01 3.9896124631543387e+01 2.5652127221458478e+01 0 0 1
9003 102 7 7.3999999999999996e-02 3.9029884453356885e+01 3.5769732771248833e+01 2.8544808445471428e+01 0 0 1
865 10 7 7.3999999999999996e-02 2.7824083195607123e+01 3.0126355726071953e+01 3.0093687653543782e+01 1 0 0
2618 30 7 7.3999999999999996e-02 2.4359430874695203e+01 3.0175327750549332e+01 3.4055757111448585e+01 1 0 0
165 2 9 -5.5000000000000004e-01 2.7023300359348259e+01 2.4709666773993970e+01 3.0314547688021690e+01 0 0 0
62 1 7 7.3999999999999996e-02 2.4572142508801857e+01 2.4332560574571836e+01 3.0998986472855329e+01 0 0 0
124 2 7 7.3999999999999996e-02 2.9326946352512579e+01 2.7091315693986918e+01 3.5633254735766741e+01 0 0 0
854 10 4 -2.2200000000000000e-01 2.8239744160107254e+01 2.8035823354478708e+01 3.0110285180400723e+01 1 0 0
868 10 6 7.3999999999999996e-02 2.7673481824633360e+01 2.7837752731566379e+01 3.1067659588655701e+01 1 0 0
866 10 6 7.3999999999999996e-02 2.9253131197302046e+01 2.8172448604579081e+01 3.0546429528954860e+01 1 0 0
121 2 9 -5.5000000000000004e-01 3.1267217565824872e+01 2.6261901603786761e+01 3.4308479397518411e+01 0 0 0
115 2 8 7.5000000000000000e-01 3.0149079094405657e+01 2.5923272667043520e+01 3.4039626399467224e+01 0 0 0
131 2 7 7.3999999999999996e-02 2.7859651524810609e+01 2.9715796404829284e+01 3.5314871065779762e+01 0 0 0
113 2 3 1.9000000000000000e-01 3.0549012920493809e+01 2.4200184044412655e+01 3.2551973161392070e+01 0 0 0
129 2 7 7.3999999999999996e-02 2.5958297375695690e+01 2.8271985188902143e+01 3.4192589943653850e+01 0 0 0
116 2 5 -1.4799999999999999e-01 2.8976314423380526e+01 2.6462212973883474e+01 3.4853191812978665e+01 0 0 0
118 2 5 -1.4799999999999999e-01 2.6712576914937966e+01 2.7874355010510662e+01 3.4898165073552413e+01 0 0 0
117 2 5 -1.4799999999999999e-01 2.7874549048498430e+01 2.7290625457383804e+01 3.4150396185359668e+01 0 0 0
127 2 7 7.3999999999999996e-02 2.8350545756929286e+01 2.8136823162883779e+01 3.3605404164678049e+01 0 0 0
126 2 7 7.3999999999999996e-02 2.7447169792988966e+01 2.6550827193301888e+01 3.3412469197472554e+01 0 0 0
9074 102 7 7.3999999999999996e-02 3.0094186323618320e+01 2.9772805946426210e+01 3.2036733155167781e+01 0 0 1
9063 102 5 -1.4799999999999999e-01 2.9668954121598745e+01 3.0695021288863597e+01 3.2362371860243499e+01 0 0 1
2625 30 6 7.3999999999999996e-02 2.5996067333074549e+01 3.0426428685092773e+01 3.2167440644653773e+01 1 0 0
114 2 10 -4.5000000000000001e-01 2.9680094493824285e+01 2.5044029581821484e+01 3.3175929693702948e+01 0 0 0
2611 30 5 -1.4799999999999999e-01 2.4017101262421452e+01 3.1322647262436377e+01 3.1707489560727087e+01 1 0 0
9068 102 7 7.3999999999999996e-02 3.1676246102054002e+01 2.9786832930217201e+01 3.0432814962182956e+01 0 0 1
123 2 2 2.9999999999999999e-02 3.0710724336421485e+01 2.4642327448166984e+01 3.1531534813254108e+01 0 0 0
9064 102 4 -2.2200000000000000e-01 3.0310871700508919e+01 3.0947137249569892e+01 3.3793984495733355e+01 0 0 1
9078 102 6 7.3999999999999996e-02 2.9686344154388390e+01 3.1652318474370631e+01 3.4361890168025326e+01 0 0 1
9077 102 6 7.3999999999999996e-02 3.0455244661683874e+01 2.9986926532295875e+01 3.4342809242160001e+01 0 0 1
9076 102 6 7.3999999999999996e-02 3.1216284305941510e+01 3.1514773822590591e+01 3.3668048757639461e+01 0 0 1
9072 102 7 7.3999999999999996e-02 2.9097394418935604e+01 3.1969174061848562e+01 3.0686476462352168e+01 0 0 1
9062 102 5 -1.4799999999999999e-01 2.9881173794454099e+01 3.1911926962281171e+01 3.1459716222224468e+01 0 0 1
9075 102 7 7.3999999999999996e-02 2.8639095705924408e+01 3.0521683520779785e+01 3.2463020906213401e+01 0 0 1
2624 30 6 7.3999999999999996e-02 2.5872302928248494e+01 3.1092520763507082e+01 3.0610026770014610e+01 1 0 0
2612 30 4 -2.2200000000000000e-01 2.5603245408695603e+01 3.1287622074103428e+01 3.1649722062072286e+01 1 0 0
122 2 2 2.9999999999999999e-02 3.1489577391272139e+01 2.4113204444944863e+01 3.3048597982320700e+01 0 0 0
106 2 7 7.3999999999999996e-02 2.4390940454556400e+01 2.4645827840280447e+01 3.4628179589951614e+01 0 0 0
105 2 7 7.3999999999999996e-02 2.6863669555207373e+01 2.4080202262793513e+01 3.4608354300800414e+01 0 0 0
128 2 7 7.3999999999999996e-02 2.6225658985193832e+01 2.7105666317025289e+01 3.5412009225984789e+01 0 0 0
9345 105 6 7.3999999999999996e-02 2.4399501902000708e+01 2.7597043484628276e+01 3.0792914049657913e+01 1 0 1
125 2 7 7.3999999999999996e-02 2.8405238204285865e+01 2.5641671562711210e+01 3.5340966502059338e+01 0 0 0
119 2 5 -1.4799999999999999e-01 2.7195498178454386e+01 2.9000429517917343e+01 3.5800608735023026e+01 0 0 0
9055 102 6 7.3999999999999996e-02 3.7200908880680956e+01 2.5081693150502204e+01 3.0541886171334504e+01 0 0 1
9052 102 7 7.3999999999999996e-02 3.4618169336338816e+01 2.5503338084534398e+01 3.0045923757937736e+01 0 0 1
1054 12 4 -2.2200000000000000e-01 3.2928287921487929e+01 3.9662670740025973e+01 3.1583043637978385e+01 0 0 0
9053 102 7 7.3999999999999996e-02 3.5034806746593453e+01 2.4308638118689242e+01 3.1456344439467244e+01 0 0 1
9058 102 10 -4.5000000000000001e-01 3.3573049967601577e+01 3.2217575670600716e+01 2.9881128147654941e+01 0 0 1
1977 23 7 7.3999999999999996e-02 3.9524404106226854e+01 2.5678816185814323e+01 3.0568463675316288e+01 0 1 0
9016 102 5 -1.4799999999999999e-01 3.9793840356414691e+01 2.9145428694390269e+01 3.1028173431929176e+01 0 0 1
9025 102 7 7.3999999999999996e-02 3.9822201134075868e+01 2.8062145235006259e+01 3.1102981708630779e+01 0 0 1
5014 57 5 -1.4799999999999999e-01 3.7757549669836017e+01 3.1379871055101535e+01 3.5737814120378189e+01 0 0 0
9050 102 7 7.3999999999999996e-02 3.3004241372699703e+01 2.5840364614329399e+01 3.1856020662247513e+01 0 0 1
9046 102 7 7.3999999999999996e-02 3.2216142799836888e+01 2.8392943236715283e+01 3.2359293251221061e+01 0 0 1
2705 31 7 7.3999999999999996e-02 3.9115996269171028e+01 2.8368970351122638e+01 3.5445285629906934e+01 0 0 0
2697 31 5 -1.4799999999999999e-01 3.8958068942012552e+01 2.7319764006346620e+01 3.5668059457733833e+01 0 0 0
9022 102 2 2.9999999999999999e-02 3.5821847129772308e+01 2.9817781067353778e+01 3.0080022122521079e+01 0 0 1
9013 102 3 1.9000000000000000e-01 3.6530660756883876e+01 3.0646744263935627e+01 3.0110091868684044e+01 0 0 1
9042 102 4 -2.2200000000000000e-01 3.6567304550164948e+01 2.5722260712022919e+01 3.1140351753725099e+01 0 0 1
9051 102 7 7.3999999999999996e-02 3.4409396666437800e+01 2.5898487290370621e+01 3.2944628173975211e+01 0 0 1
9049 102 7 7.3999999999999996e-02 3.4141775017577267e+01 2.7901045591176526e+01 3.0709250547318604e+01 0 0 1
9026 102 7 7.3999999999999996e-02 3.9040099635577668e+01 2.9594699072710377e+01 3.3116843351696993e+01 0 0 1
2696 31 8 7.5000000000000000e-01 3.7430451491589267e+01 2.7044027321532642e+01 3.5541308208529806e+01 0 0 0
9015 102 8 7.5000000000000000e-01 3.8550876430396862e+01 2.9456417878154575e+01 3.0154403939553994e+01 0 0 1
9047 102 7 7.3999999999999996e-02 3.3328462166396669e+01 2.7920366009866765e+01 3.3630881555414149e+01 0 0 1
2725 31 2 2.9999999999999999e-02 3.3441489167858172e+01 2.5222170637096315e+01 3.5237907947813099e+01 0 0 0
9040 102 5 -1.4799999999999999e-01 3.4045474762028206e+01 2.6153449161456415e+01 3.1961217306846301e+01 0 0 1
9038 102 5 -1.4799999999999999e-01 3.3213904026999465e+01 2.8433238448606339e+01 3.2644991090772976e+01 0 0 1
9048 102 7 7.3999999999999996e-02 3.5156472323732615e+01 2.7849614921505140e+01 3.2148511284348061e+01 0 0 1
9041 102 5 -1.4799999999999999e-01 3.5031805367161724e+01 2.5394446854367960e+01 3.1055229591426947e+01 0 0 1
9039 102 5 -1.4799999999999999e-01 3.4141579362581787e+01 2.7630386546868632e+01 3.1793424905424338e+01 0 0 1
9014 102 10 -4.5000000000000001e-01 3.7634532594178495e+01 3.0218708424894764e+01 3.0731198898833274e+01 0 0 1
2702 31 9 -5.5000000000000004e-01 3.6895660915820741e+01 2.7062105002709160e+01 3.4449073553161377e+01 0 0 0
9036 102 10 -4.5000000000000001e-01 3.4506891091044317e+01 3.0311055510241541e+01 3.1802847123026325e+01 0 0 1
9037 102 8 7.5000000000000000e-01 3.3679930771527381e+01 2.9844889242206396e+01 3.2831601377267546e+01 0 0 1
9043 102 9 -5.5000000000000004e-01 3.3311718739468780e+01 3.0440875860435664e+01 3.3877708402261270e+01 0 0 1
9054 102 6 7.3999999999999996e-02 3.6853354263502467e+01 2.6688806433550376e+01 3.0801411215734745e+01 0 0 1
2706 31 7 7.3999999999999996e-02 3.9447010297762759e+01 2.6724842998607148e+01 3.4874845950141292e+01 0 0 0
5026 57 7 7.3999999999999996e-02 3.7625736542263013e+01 3.1548237688404402e+01 3.4611463220256411e+01 0 0 0
9035 102 3 1.9000000000000000e-01 3.5069004302101249e+01 3.1599909021991088e+01 3.2002466832398504e+01 0 0 1
9044 102 2 2.9999999999999999e-02 3.5657640310530141e+01 3.1683472814943137e+01 3.2913732046069384e+01 0 0 1
2726 31 2 2.9999999999999999e-02 3.5225884345544038e+01 2.4868473218139325e+01 3.4944401529016076e+01 0 0 0
9056 102 6 7.3999999999999996e-02 3.7006266368641874e+01 2.5570224432622034e+01 3.2122293111371171e+01 0 0 1
5025 57 7 7.3999999999999996e-02 3.8342605402772691e+01 3.0464493147175709e+01 3.5825114315152284e+01 0 0 0
5027 57 6 7.3999999999999996e-02 3.5941457106295779e+01 3.0353415293057360e+01 3.5685575360999181e+01 0 0 0
2716 31 3 1.9000000000000000e-01 3.4359679461990837e+01 2.4823290787692681e+01 3.5621875815251286e+01 0 0 0
2703 31 2 2.9999999999999999e-02 3.4756461332190966e+01 2.7305388532216018e+01 3.5794301298854961e+01 0 0 0
480 6 7 7.3999999999999996e-02 2.8363397963066312e+01 3.8701333767934614e+01 3.4952309611582649e+01 0 0 0
9809 111 7 7.3999999999999996e-02 2.4030221156783263e+01 3.7354155675981289e+01 3.1917485089137138e+01 0 0 1
9812 111 6 7.3999999999999996e-02 2.4595290226030855e+01 3.7883647581260718e+01 3.4263194273137849e+01 0 0 1
3067 35 7 7.3999999999999996e-02 2.4087813330906140e+01 3.3475918854767606e+01 3.5419566562962906e+01 1 0 0
3070 35 6 7.3999999999999996e-02 2.5595258398322098e+01 3.5476254925926675e+01 3.5298042269492541e+01 1 0 0
882 10 7 7.3999999999999996e-02 2.7432541355378387e+01 3.9279071382933360e+01 2.9875111806393200e+01 1 0 0
472 6 5 -1.4799999999999999e-01 2.7837873939678044e+01 3.9198213166587614e+01 3.4105148461135855e+01 0 0 0
3275 37 5 -1.4799999999999999e-01 3.7223032786473375e+01 3.7124199834726092e+01 3.4272821993360679e+01 0 0 0
490 6 6 7.3999999999999996e-02 3.0167271847662228e+01 3.7659739214333989e+01 3.4686730679361077e+01 0 0 0
883 10 7 7.3999999999999996e-02 2.5666272323592011e+01 3.9031012620750602e+01 3.0029853331958400e+01 1 0 0
9061 102 5 -1.4799999999999999e-01 3.1294899834688248e+01 3.1926751294794293e+01 3.0869682631110358e+01 0 0 1
489 6 6 7.3999999999999996e-02 3.0761368890572371e+01 3.6134251186586653e+01 3.4890042008422455e+01 0 0 0
9073 102 7 7.3999999999999996e-02 2.9761638757995577e+01 3.2708630127535535e+01 3.2203845531747035e+01 0 0 1
482 6 7 7.3999999999999996e-02 2.6999498656223849e+01 3.8795535670826823e+01 3.2166823972813162e+01 0 0 0
2626 30 6 7.3999999999999996e-02 2.5871856421317275e+01 3.2328270695582894e+01 3.1865180735661106e+01 1 0 0
476 6 4 -2.2200000000000000e-01 3.0280067981454046e+01 3.6756046468873222e+01 3.4122175477454633e+01 0 0 0
839 10 7 7.3999999999999996e-02 2.9979142668571065e+01 3.6520075636400364e+01 3.0197023099809968e+01 1 0 0
487 6 7 7.3999999999999996e-02 2.8154863322573746e+01 3.6011215283645328e+01 3.4232192804895874e+01 0 0 0
475 6 5 -1.4799999999999999e-01 2.8958693571101197e+01 3.6219022082409637e+01 3.3522323857553367e+01 0 0 0
834 10 2 2.9999999999999999e-02 2.4928252391191890e+01 3.6222682308080152e+01 3.0211880068787508e+01 1 0 0
484 6 7 7.3999999999999996e-02 2.9179897724890935e+01 3.7789345340608754e+01 3.2080684736349227e+01 0 0 0
473 6 5 -1.4799999999999999e-01 2.7324966110223279e+01 3.8162374318606986e+01 3.3040284445649327e+01 0 0 0
474 6 5 -1.4799999999999999e-01 2.8393776771747230e+01 3.7221483660603212e+01 3.2548235700746396e+01 0 0 0
835 10 2 2.9999999999999999e-02 2.5630173181767930e+01 3.4610028806772945e+01 2.9929302591705124e+01 1 0 0
485 6 7 7.3999999999999996e-02 2.7962142416658800e+01 3.6624980222414912e+01 3.1771911819005282e+01 0 0 0
483 6 7 7.3999999999999996e-02 2.6448186388068386e+01 3.7560756514386483e+01 3.3373502914747220e+01 0 0 0
486 6 7 7.3999999999999996e-02 2.9196503054816450e+01 3.5302142932924617e+01 3.2894201010638639e+01 0 0 0
488 6 6 7.3999999999999996e-02 3.1013652395362293e+01 3.7051087551625891e+01 3.3311384241299585e+01 0 0 0
9070 102 7 7.3999999999999996e-02 3.1503748719832426e+01 3.2902656679293990e+01 3.0363580019103996e+01 0 0 1
3069 35 6 7.3999999999999996e-02 2.3984663630330374e+01 3.6117476416040546e+01 3.5723363894664317e+01 1 0 0
481 6 7 7.3999999999999996e-02 2.8535313555076698e+01 3.9942360559866742e+01 3.3724887746100627e+01 0 0 0