LAMMPS (5 Jun 2019)
  using 1 OpenMP thread(s) per MPI task
package omp 1
using multi-threaded neighbor list subroutines

atom_style full
units real

# Define parameters
# T and srate are passed by command line
variable DT equal 0.5 # time step [fs]
#variable	srate equal 2e-7 # shear rate [1/fs]
variable fname string ${T}K-srate=${srate}.txt
variable fname string 298K-srate=${srate}.txt
variable fname string 298K-srate=10e-7.txt

# read restart file from previous equilibrium run
read_restart    pec6_125.equi${T}K
read_restart    pec6_125.equi298K
WARNING: Restart file used different # of processors (src/read_restart.cpp:740)
  restoring atom style full from restart
  orthogonal box = (23.9525 23.9525 23.9525) to (72.0475 72.0475 72.0475)
  3 by 3 by 4 MPI processor grid
  restoring pair style lj/cut/coul/long/omp from restart
  restoring bond style harmonic/omp from restart
  restoring angle style harmonic/omp from restart
  restoring dihedral style opls/omp from restart
  restoring improper style harmonic/omp from restart
  11125 atoms
  11000 bonds
  20750 angles
  28000 dihedrals
  500 impropers
  4 = max # of 1-2 neighbors
  12 = max # of 1-3 neighbors
  16 = max # of 1-4 neighbors
  20 = max # of special neighbors
  special bonds CPU = 0.0030475 secs
  read_restart CPU = 0.323153 secs
neigh_modify	delay 0 every 1


# initialization
bond_style harmonic
angle_style harmonic
dihedral_style opls
improper_style harmonic
pair_style lj/cut/coul/long 12.0 12.0
pair_modify tail yes mix geometric
special_bonds lj/coul 0.0 0.0 0.5

# force field parameters, ff is passed by command line
include    pec6.${ff}.settings
include    pec6.lopls2015.settings
  pair_coeff 1 1 0.066 3.5
  pair_coeff 2 2 0.015 2.42
  pair_coeff 3 3 0.066 3.5
  pair_coeff 4 4 0.066 3.5
  pair_coeff 5 5 0.066 3.5
  pair_coeff 6 6 0.03 2.5
  pair_coeff 7 7 0.026290630975 2.5
  pair_coeff 8 8 0.105 3.1875
  pair_coeff 9 9 0.168 3.108
  pair_coeff 10 10 0.17 2.55
  bond_coeff 1 570.0 1.229
  bond_coeff 2 317.0 1.522
  bond_coeff 3 214.0 1.327
  bond_coeff 4 268.0 1.529
  bond_coeff 5 320.0 1.41
  bond_coeff 6 340.0 1.09
  angle_coeff 1 80.0 120.4
  angle_coeff 2 81.0 111.4
  angle_coeff 3 83.0 123.4
  angle_coeff 4 58.35 112.7
  angle_coeff 5 63.0 111.1
  angle_coeff 6 50.0 109.5
  angle_coeff 7 33.0 107.8
  angle_coeff 8 35.0 109.5
  angle_coeff 9 35.0 109.5
  angle_coeff 10 37.5 110.7
  angle_coeff 11 83.0 116.9
dihedral_coeff 1 -0.00000 -0.00000 -0.00000 0.00000
dihedral_coeff 2 -0.00000 0.00000 0.30000 0.00000
dihedral_coeff 3 -0.00000 0.00000 0.30000 0.00000
dihedral_coeff 4 0.00000 0.00000 0.19800 0.00000
dihedral_coeff 5 0.64470 -0.21434 0.17822 0.00000
dihedral_coeff 6 3.11924 5.73771 -0.00000 0.00000
dihedral_coeff 7 -0.00000 5.73772 -0.00000 0.00000
dihedral_coeff 8 -0.00742 0.00218 0.11181 0.00000
dihedral_coeff 9 -1.73540 -1.24844 0.62389 0.00000
dihedral_coeff 10 0.88498 -0.62690 -0.49334 0.00000
dihedral_coeff 11 -0.27601 1.23685 -0.67075 0.00000
dihedral_coeff 12 -0.00213 0.01735 -0.29521 0.00000
dihedral_coeff 13 -2.30739 -0.62733 0.62195 0.00000
dihedral_coeff 14 2.25871 -1.02408 1.00710 0.00000
  improper_coeff 1 10.5 180.0
  set type 1 charge 0.0
  125 settings made for charge
  set type 2 charge 0.03
  1000 settings made for charge
  set type 3 charge 0.19
  500 settings made for charge
  set type 4 charge -0.222
  500 settings made for charge
  set type 5 charge -0.148
  2000 settings made for charge
  set type 6 charge 0.074
  1500 settings made for charge
  set type 7 charge 0.074
  4000 settings made for charge
  set type 8 charge 0.75
  500 settings made for charge
  set type 9 charge -0.55
  500 settings made for charge
  set type 10 charge -0.45
  500 settings made for charge


change_box all triclinic
  triclinic box = (23.9525 23.9525 23.9525) to (72.0475 72.0475 72.0475) with tilt (0 0 0)
kspace_style pppm 0.0001 # must redefine pppm after changing to triclinic


timestep ${DT}
timestep 0.5
reset_timestep	0
#run_style respa 2 4


# CORE part of NEMD simulation; using SLLOD algorithm.

fix		nemd1 all nvt/sllod temp $T $T $(100*dt)
fix		nemd1 all nvt/sllod temp 298 $T $(100*dt)
fix		nemd1 all nvt/sllod temp 298 298 $(100*dt)
fix		nemd1 all nvt/sllod temp 298 298 50
fix		nemd2 all deform 1 xy erate ${srate} remap v
fix		nemd2 all deform 1 xy erate 10e-7 remap v

compute		usual all temp
compute		tilt  all temp/deform
compute     tiltp all pressure tilt

#compute         layers all chunk/atom bin/1d y center 0.05 units reduced
#fix		4 all ave/chunk 100 250 25000 layers vx file velocity.txt

# data gathering
variable        stress equal (-1)*c_tiltp[4]  # -pxy
variable        h1 equal c_tiltp[1]  # pxx
variable        h2 equal c_tiltp[2]  # pyy
variable        h3 equal c_tiltp[3]  # pzz
variable        h4 equal c_tiltp[4]  # pxy
variable        h5 equal c_tiltp[5]  # pxz
variable        h6 equal c_tiltp[6]  # pyz
variable	visc equal 101325e-12*v_stress/(v_srate) # shear viscosity [mPa s]; first term is unit converter

fix		viscave all ave/time 10 1000 10000 v_visc ave running start 10000 file ${fname}
fix		viscave all ave/time 10 1000 10000 v_visc ave running start 10000 file 298K-srate=10e-7.txt

thermo 10000
thermo_style	custom step temp press pxy v_visc f_viscave
thermo_modify	temp tilt
thermo_modify   press tiltp

# only need to run for 5400 steps to make a good 100-frame movie
# set 54K steps above in equil and 5400 here simply to make good movie
# 54K and 5400 are multiples of box-swap periodicity = 2700 steps

#dump myDump all atom 10000 pec6.lammpstrj

#dump	        1 all custom 50 dump.nemd.2d id type x y z vx

#dump		2 all image 50 image.*.jpg vx type zoom 1.2 adiam 1.2
#dump_modify	2 pad 5 amap 0.0 ${srate} ca 0.0 2 min blue max red

restart 1000000 ${T}K.restart.A ${T}K.restart.B
restart 1000000 298K.restart.A ${T}K.restart.B
restart 1000000 298K.restart.A 298K.restart.B
run		50000000
PPPM initialization ...
  using 12-bit tables for long-range coulomb (src/kspace.cpp:319)
  G vector (1/distance) = 0.196002
  grid = 15 15 15
  stencil order = 5
  estimated absolute RMS force accuracy = 0.0198665
  estimated relative force accuracy = 5.98274e-05
  using double precision FFTs
  3d grid and FFT values/proc = 1000 135
No /omp style for force computation currently active
Neighbor list info ...
  update every 1 steps, delay 0 steps, check yes
  max neighbors/atom: 2000, page size: 100000
  master list distance cutoff = 14
  ghost atom cutoff = 14
  binsize = 7, bins = 7 7 7
  1 neighbor lists, perpetual/occasional/extra = 1 0 0
  (1) pair lj/cut/coul/long, perpetual
      attributes: half, newton on, omp
      pair build: half/bin/newton/tri/omp
      stencil: half/bin/3d/newton/tri
      bin: standard
Per MPI rank memory allocation (min/avg/max) = 16.19 | 16.21 | 16.58 Mbytes
Step Temp Press Pxy v_visc f_viscave 
       0    298.38095   -850.63985   -129.46948    13.118495            0 
   10000    296.82492    476.22625     86.92435   -8.8076097    4.0318172 
   20000    300.34206    -620.5592   -480.38148    48.674653    4.3200702 
   30000    298.51066   -492.84222    365.09657    -36.99341    6.7602829 
   40000    294.57191   -762.84246   -561.34058    56.877834    6.8310877 
   50000    302.23009    1186.6207    456.48377   -46.253218    6.4019529 
   60000    296.36721    834.71874   -22.346721    2.2642816     7.187106 
   70000    295.04145     94.08682   -234.21525     23.73186    8.2025321 
   80000    300.64286    284.71699    250.59535   -25.391574    9.1514775 
   90000    298.12572    417.42626   -882.98493    89.468448    10.204373 
  100000    296.26109   -127.61809   -672.19246    68.109901    10.271328 
  110000    298.28718    165.39122   -268.60488     27.21639    10.365713 
  120000    295.48093   -154.81965   -272.61556    27.622772    10.536255 
  130000    299.03215    1227.3167    549.79824   -55.708307    10.734909 
  140000    297.24747    -235.9357   -1720.1426    174.29345    11.184195 
  150000    297.53398   -1105.9321    587.12637    -59.49058    11.310879 
  160000    305.07903    230.45284    -184.8313    18.728031    11.307206 
  170000     297.9145    495.05203    269.55639   -27.312801     11.84222 
  180000    299.88394    218.52135    132.83585   -13.459593    12.161485 
  190000    299.39473   -524.06577   -183.43009    18.586054    12.520142 
  200000    297.91667   -1.6820509    806.70088   -81.738967    12.892388 
  210000    294.00571   -598.41801    521.98618    -52.89025     12.79655 
  220000    299.66885    1244.9657   -657.08742    66.579382    12.837117 
  230000    296.97462    148.25506   -554.32537    56.167018    12.720526 
  240000      301.149     498.3409   -517.58964     52.44477    12.925751 
  250000    296.98935   -182.69943     466.7386   -47.292289    13.165872 
  260000    296.76671    1258.0965   -514.48522    52.130215    13.581213 
  270000    299.08964    164.46038   -1090.8798    110.53339    13.711158 
  280000    298.24743   -748.35512   -146.75077    14.869522    13.667351 
  290000    297.78782    183.02909    459.64831   -46.573865    13.876511 
  300000    299.72839   -801.98152    -819.4355    83.029302    14.111645 
  310000    294.35358   -716.20058   -501.84819    50.849767     14.35028 
  320000    296.46092    -598.0797    58.386678   -5.9160301    14.724808 
  330000    300.81433   -409.46733   -634.55751    64.296539    14.897053 
  340000    299.62667   -1082.0495    -231.9124    23.498524    14.799434 
  350000     296.5574    258.96981    405.49062   -41.086337    14.786503 
  360000    296.35967    785.05837   -192.69521    19.524842      15.0228 
  370000    300.12574    545.11621   -536.24655    54.335182    15.338257 
  380000    296.59158   -517.88577    419.19341   -42.474773    15.591421 
  390000    298.64889   -1577.4353   -1684.5825    170.69032    15.915491 
  400000    302.79963    465.60552   -354.44968    35.914614     16.32326 
  410000    294.65828    -529.9988   -496.95505    50.353971      16.5029 
  420000      295.383      -215.01    113.85202   -11.536056    16.630155 
  430000    302.01243   -143.23369   -235.45861    23.857844    16.795033 
  440000    299.84584    119.01907    60.221297   -6.1019229    16.891617 
  450000    298.51139    1015.0492    -201.9794    20.465562    17.023356 
  460000      298.845   -320.87989   -1044.0763    105.79103    17.182907 
  470000    296.30086   -604.26817   -641.18529      64.9681    17.460635 
  480000    298.63707     -831.986    539.67381   -54.682448    17.627506 
  490000    297.63782   -614.65887    13.954534   -1.4139432    17.650791 
  500000    295.60021   -281.53624     382.5238   -38.759224     17.69161 
  510000    297.61462   -1077.1374    311.31346   -31.543836    17.714595 
  520000    297.47955    25.075202   -96.098031     9.737133    17.760146 
  530000    296.82014   -22.081511     436.5541   -44.233844    17.928129 
  540000    301.03565     231.1846    946.07089   -95.860633    18.082633 
  550000    300.03264   -154.25512   -36.502079    3.6985731    18.191892 
  560000    298.71539    736.57658    89.687031   -9.0875384    18.256211 
  570000    303.10173   -66.048892   -669.62425    67.849677    18.293774 
  580000    298.90347   -104.82553   -756.33232    76.635372    18.460564 
  590000    296.59072   -272.52704   -787.98011    79.842085    18.599551 
  600000    296.95384    382.76953    294.01074   -29.790639    18.705634 
  610000    298.61206    172.90124   -973.01532    98.590777    18.887793 
  620000    297.42173   -711.57527   -191.30223    19.383698      19.0382 
  630000    297.85608   -37.688499   -392.05736    39.725212    19.121544 
  640000    290.51404   -348.82419    10.824861    -1.096829    19.214401 
  650000    297.55013   -1072.7155    380.04178   -38.507733    19.291217 
  660000    298.01324    217.66919   -335.50421    33.994964    19.362373 
  670000    302.31112   -1025.3624    -18.48283    1.8727728    19.536656 
  680000    298.14549    -30.19055    -350.9522    35.560231    19.675127 
  690000    299.44001   -53.875831    -301.9799    30.598113     19.86633 
  700000    298.31414   -290.90668   -52.250364    5.2942681    19.942486 
  710000    299.69031   -17.056501   -892.23778    90.405994    19.906759 
  720000    298.31265    131.87009   -596.22916    60.412919    19.893341 
  730000    295.50701    870.63143     506.6449   -51.335795    19.845543 
  740000    298.99878    275.55518     -1055.09      106.907    19.871772 
  750000    299.38148   -680.02983   -879.78996    89.144718    19.949329 
  760000    300.42719    104.69833   -771.50744    78.172991    20.084558 
  770000    295.39044    -343.8958    -158.5842    16.068544    20.207498 
  780000     297.8106   -364.03516   -1418.0505    143.68397    20.437872 
  790000    294.88752   -182.38336    224.34254   -22.731508    20.600015 
  800000    300.15866    351.30395   -278.19271    28.187877    20.705677 
  810000    296.47278   -96.342936    146.13753   -14.807385    20.686221 
  820000    296.77056   -1643.1606   -990.47927    100.36031     20.75149 
  830000    296.45633   -298.41148    250.64469   -25.396574    20.777914 
  840000    298.06471   -551.61715    60.289212   -6.1088044    20.787188 
  850000    298.50585   -76.673044    512.59663   -51.938853     20.81722 
  860000    297.89369    3.8961144    157.74655   -15.983669    20.953768 
  870000    301.21155   -858.40421   -764.18188    77.430729    21.029669 
  880000     296.0573   -289.11697    208.79874   -21.156532    21.106974 
  890000    298.09715    269.13769    170.12358   -17.237772    21.178017 
  900000    298.55269   -186.87643   -314.38962    31.855529    21.124464 
  910000    300.99653    -207.6708   -1313.5116    133.09157    21.173598 
  920000    295.14094    96.728414   -40.388377    4.0923523    21.215085 
  930000    294.89602   -1307.6949    231.69963   -23.476965    21.294052 
  940000    301.91849   -20.700955   -280.51371    28.423052    21.352195 
  950000     299.4746     778.7987    757.71955   -76.775934    21.410473 
  960000     298.8564    104.50131    -332.6066    33.701364     21.52888 
  970000     300.4054   -346.16955    -29.37746    2.9766711    21.670065 
  980000    301.90316    861.85937   -500.66732    50.730117    21.794076 
  990000    297.76599    35.836818   -426.34489    43.199396    21.844721 
 1000000    293.89452   -558.31176   -346.65526    35.124844    21.871159 
 1010000    296.74247     -451.458   -187.31685     18.97988    21.931522 
 1020000    296.57981    318.09598   -68.056502     6.895825    21.951288 
 1030000    295.60873   -52.588217   -314.10341    31.826528    21.997904 
 1040000     297.8799    865.76142    -153.6176    15.565304    22.061225 
 1050000    300.89887    -136.0474   -348.68204    35.330207    22.039834 
 1060000    300.17952   -53.806279   -401.81842    40.714251     22.02692 
 1070000    296.15781    22.928665   -228.58499    23.161374    22.012162 
 1080000    297.35246      769.122   -10.165475    1.0300168    22.043181 
 1090000    297.78443    19.374741   -673.95862    68.288858    22.074741 
 1100000    294.76303    328.39368    845.78551   -85.699217    22.071184 
 1110000    299.28453    362.34322   -394.45391    39.968043    22.080354 
 1120000    301.46561   -168.78087    98.469727   -9.9774451    22.067751 
 1130000    297.35527    708.63285    1029.6475   -104.32903    22.027388 
 1140000    301.00411    -354.5551   -530.75697     53.77895    21.999329 
 1150000    299.13624    901.60036   -592.75087    60.060482    21.925626 
 1160000    302.54752    197.14034   -152.45352    15.447353    21.876482 
 1170000    298.89465     463.0827    1.1897164  -0.12054802    21.871976 
 1180000     299.7912    888.30648   -321.85686    32.612146    21.898773 
 1190000     300.6911    397.92113   -419.52249    42.508116    21.878362 
 1200000    296.74161    13.568129     485.7218   -49.215761    21.830806 
 1210000    294.86822    393.12941   -346.60483    35.119734    21.763851 
 1220000    295.04891   -837.24581   -286.90112    29.070256    21.727677 
 1230000    299.32509    271.67122   -703.62897    71.295206    21.725443 
 1240000    297.73915   -703.98155   -354.01759    35.870832    21.731097 
 1250000    298.52318    143.25343    222.10756   -22.505049    21.694269 
 1260000    295.89034    510.22742   -456.69578      46.2747    21.654282 
 1270000    296.77658     73.42597    776.23653   -78.652167     21.59267 
 1280000    298.99445   -18.443619    92.559255   -9.3785665     21.55549 
 1290000    294.92698    349.73888   -705.52371     71.48719    21.538046 
 1300000    303.24901   -481.79457   -597.85067    60.577219    21.560123 
 1310000    295.59237    1049.8153    568.01394   -57.554012    21.558453 
 1320000    295.64791   -78.639194   -584.31087    59.205299    21.552224 
 1330000    297.60748    838.46738   -601.43719    60.940623    21.563259 
 1340000    301.59742    839.22613   -604.65836    61.267009    21.574289 
 1350000    293.54324    142.17886    206.44913   -20.918459    21.543128 
 1360000    296.04497   -1205.3093   -91.454401    9.2666172    21.512797 
 1370000    299.01326    480.33846   -654.70773    66.338261    21.523152 
 1380000    301.36561     538.0965    191.05145   -19.358288    21.496039 
 1390000     301.8405    921.87618    138.49875   -14.033385    21.527629 
 1400000    294.73787   -422.19232   -660.49995    66.925158    21.543765 
 1410000    297.15253    -460.6827   -280.98275    28.470577    21.579419 
 1420000    300.36299    -46.32718   -390.11856    39.528763    21.643977 
 1430000    300.48393   -370.13446   -731.25613    74.094527    21.694685 
 1440000    296.58435   -916.59168    231.15746    -23.42203    21.770925 
 1450000    298.79743    22.254166   -611.23789    61.933679    21.822757 
 1460000    295.10787    97.149267   -659.10284    66.783595    21.896084 
 1470000    295.46193    34.594487    463.06317   -46.919876    21.929377 
 1480000    297.39026    961.85963     1089.092   -110.35224    21.980193 
 1490000    298.09588    953.46788   -134.18605    13.596402    21.986241 
 1500000    299.14941   -385.30242    802.97769   -81.361714    21.957295 
 1510000    297.91364   -219.78469   -600.25371    60.820707    21.968839 
 1520000    289.75026    278.27155   -412.19564    41.765723    22.011195 
 1530000    297.17054   -298.45159   -1120.5945    113.54424    22.036254 
 1540000    299.00406   -1033.7986   -640.76232    64.925242    22.099176 
 1550000     299.8149    339.96255   -445.36083    45.126186    22.140672 
 1560000    298.00156    332.93944   -453.12018    45.912402    22.178076 
 1570000    294.96077    -485.3631    164.31253   -16.648967    22.254695 
 1580000    298.89204    148.75648   -601.12547    60.909038    22.344423 
 1590000    300.08297   -231.35512     605.2019   -61.322083     22.34911 
 1600000    294.43589   -685.68679   -1179.7339    119.53653    22.383101 
 1610000    298.88271   -45.622628   -326.03124    33.035115    22.381856 
 1620000    296.33499   -1288.8299   -233.80854    23.690651    22.418766 
 1630000    298.93025    425.70194   -265.74748    26.926864    22.399287 
 1640000    296.25199    528.11419    265.00018   -26.851143    22.436811 
 1650000    295.32923    206.62223   -759.46442    76.952732    22.469553 
 1660000    301.99952    651.15109   -537.21718    54.433531    22.468253 
 1670000    295.21242   -273.20841   -561.72967    56.917259    22.464015 
 1680000    297.52167   -38.390225   -165.39155    16.758299    22.448989 
 1690000    297.15947   -126.27949   -225.67206    22.866221    22.439523 
 1700000    297.84626    -72.61175    -500.7336    50.736832    22.445288 
 1710000    302.15582    391.94011   -1263.6618    128.04053    22.476742 
 1720000    295.17823   -356.22799    97.976371   -9.9274558    22.474115 
 1730000    298.71637   -719.59062   -625.89013    63.418317    22.469361 
 1740000    297.65272   -598.16442   -99.594246    10.091387     22.44801 
 1750000     300.9409   -131.22866   -1120.1758    113.50181    22.450384 
 1760000    298.69164    433.45592   -820.14726    83.101421     22.45941 
 1770000    298.70418   -115.46541   -267.23334    27.077419    22.486233 
 1780000    298.81613    1069.1043   -109.16149    11.060788    22.524315 
 1790000    298.02333    187.94103   -260.81167    26.426742    22.525295 
 1800000    295.39221    1001.2046   -484.41682    49.083535    22.504762 
 1810000    303.33074    176.99386    -686.2108    69.530309    22.487392 
 1820000    298.91641   -445.97411   -30.479796    3.0883654    22.470456 
 1830000    296.85338   -675.00293    12.842091   -1.3012249    22.483402 
 1840000    301.12096   -321.68717    117.85917   -11.942081    22.477894 
 1850000    299.54102    1198.4201     159.8501   -16.196811    22.454001 
 1860000    296.72543    676.40262   -55.836398    5.6576231     22.46336 
 1870000    297.60301    567.00799    74.445202   -7.5431601    22.467965 
 1880000     300.2712     184.9213    166.12774   -16.832893    22.462051 
 1890000    297.14691    -298.0507    616.46187   -62.462999    22.444932 
 1900000    298.99355    55.120596   -298.98888    30.295049    22.411087 
 1910000    298.79236   -231.77688     -89.4802    9.0665812     22.35565 
 1920000    303.71236   -508.05402   -715.60713    72.508892    22.296972 
 1930000    297.05847   -593.59479   -325.93501    33.025365    22.323569 
 1940000    297.82396   -273.91296    328.47182   -33.282408    22.327694 
 1950000    296.60536   -1029.7516    188.77195   -19.127318    22.359216 
 1960000    296.51491   -582.35758    -470.6907    47.692736    22.364278 
 1970000    299.93247    534.20302    277.82314   -28.150429    22.369548 
 1980000    297.45325   -486.68769    380.54946   -38.559174    22.328149 
 1990000    302.63057     894.8545   -461.33851    46.745124    22.322034 
 2000000    301.91852    318.42778   -972.10609    98.498649    22.275563 
 2010000    297.43094    435.75633   -903.73449    91.570897    22.230602 
 2020000    298.47498    397.42557   -101.37264    10.271583    22.205364 
 2030000     298.7482    -115.0134   -619.18295    62.738712     22.21105 
 2040000    293.82015   -291.78433   -168.35534    17.058605    22.200325 
 2050000    295.39955    221.32813    -431.8851    43.760758     22.21175 
 2060000    297.96842    392.25795   -718.79381    72.831783    22.229709 
 2070000    298.29927   -1175.1717    551.70629   -55.901639    22.244142 
 2080000    296.26598   -130.07874   -289.67011    29.350824    22.270028 
 2090000    301.90412   -283.69949   -238.04696    24.120108    22.283462 
 2100000    300.74822   -847.81147   -897.36578    90.925588    22.273455 
 2110000    297.65586    348.66866   -308.90516    31.299815    22.273271 
 2120000     299.7063   -491.17811   -73.730565    7.4707495    22.321726 
 2130000    297.51477    578.96939    -463.1724    46.930944    22.354314 
 2140000    297.10276    593.35851    125.29943   -12.695964    22.374189 
 2150000    297.41413   -341.96211   -337.07183    34.153803    22.365848 
 2160000    296.86599    219.85265     607.9681   -61.602368    22.375358 
 2170000    300.90567    407.84776    536.12551   -54.322917    22.389258 
 2180000    304.83041    14.732298   -272.78032    27.639466    22.397022 
 2190000    299.69406     50.86077    588.27471   -59.606935    22.413496 
 2200000    298.62778   -531.72911   -393.39538    39.860786    22.413835 
 2210000    300.91265    178.04489   -902.11332    91.406632    22.405306 
 2220000    293.05244   -34.654318   -498.69001    50.529765    22.348758 
 2230000    295.57863   -118.43068   -182.69357    18.511426    22.314253 
 2240000    304.73649    497.04338   -637.81168    64.626269     22.30283 
 2250000    297.33514    60.273509   -820.15925    83.102636     22.31804 
 2260000    300.44188   -962.57393    19.501566   -1.9759962    22.337008 
 2270000    296.33869    122.50642    567.29941   -57.481612    22.378429 
 2280000     298.3824    721.54615    42.256498   -4.2816396    22.418517 
 2290000    302.66401   -241.16946   -24.659207    2.4985941    22.449772 
 2300000    301.36801   -622.31052   -436.76469    44.255182    22.434722 
 2310000    295.10567   -1366.7164   -790.10729    80.057622    22.427853 
 2320000    297.55156    846.02182    142.94114   -14.483511    22.436558 
 2330000     300.4108   -560.24019    227.91015   -23.092996    22.436423 
 2340000    298.52678   -9.6566373    595.84307   -60.373799    22.455648 
 2350000    297.21634    84.440134   -14.685916    1.4880504    22.490055 
 2360000    299.31613   -365.03098   -724.89989    73.450481    22.520566 
 2370000    299.44174   -617.98464    -236.1315    23.926024     22.55686 
 2380000    301.30254    -26.16948   -597.99096    60.591434    22.575096 
 2390000    296.59017   -1343.4548    250.08129   -25.339487    22.586467 
 2400000     296.4505    288.98324    114.69015   -11.620979     22.62775 
 2410000    294.93381   -986.09319   -482.61425    48.900889    22.650516 
 2420000    293.96587   -159.74559    58.851355   -5.9631135    22.656437 
 2430000    296.30287    116.01225   -320.91292    32.516501    22.659575 
 2440000    298.91929    288.84822   -804.72847    81.539112    22.657321 
 2450000    302.67022   -788.03203   -506.36826    51.307764    22.663435 
 2460000     297.0548   -737.12891    -506.9571    51.367428    22.671904 
 2470000    295.36685    766.97033    509.68804   -51.644141    22.692792 
 2480000    300.14153     848.5029   -6.9475682   0.70396235    22.725773 
 2490000    297.80463   -714.50235   -343.94357    34.850082    22.725164 
 2500000    299.56549   -497.81556    741.99487    -75.18263    22.699441 
 2510000    299.01309    127.97549    388.45433   -39.360135    22.716192 
 2520000    297.46275    805.00223   -260.48632    26.393776    22.708238 
 2530000    293.46587    867.01443   -51.009517    5.1685393    22.696821 
 2540000    297.15409    17.075267    562.51263   -56.996592    22.682525 
 2550000    296.40429   -558.04634   -51.056183    5.1732678    22.670735 
 2560000    302.65436     655.2964   -344.94546    34.951599    22.663561 
 2570000    297.80248   -618.08753    363.45984   -36.827568    22.667167 
 2580000    296.41065   -218.56657   -1073.8405    108.80689    22.670733 
 2590000    294.82683    738.61634   -804.14257    81.479746    22.693187 
 2600000    294.81705    175.17529    20.141971   -2.0408852    22.702998 
 2610000    297.56886    297.63366    -935.4691    94.786407    22.690826 
 2620000    299.86896   -331.16054    394.12528   -39.934744    22.709179 
 2630000    297.40845    -409.4646   -152.69682    15.472005    22.743179 
 2640000    294.32548    207.59495   -861.82849    87.324772    22.773053 
 2650000    291.70707    -1181.374    423.51385    -42.91254    22.811994 
 2660000    295.88965   -412.02773    31.334756   -3.1749941    22.839935 
 2670000      298.291    1482.6411   -37.187796    3.7680534    22.886063 
 2680000    298.00102     676.7002   -971.45782    98.432964    22.931199 
 2690000    295.01793   -552.86901   -191.68661    19.422646    22.976392 
 2700000     299.4155    438.27301   -481.39757    48.777609    23.003232 
 2710000    296.61381   -201.70895    26.705395   -2.7059241     23.03199 
 2720000    296.19235    -684.8165   -603.99795    61.200092    23.059956 
 2730000    296.90883    -411.1987    32.930287   -3.3366613    23.096997 
 2740000    293.31198   -739.45384    388.12522   -39.326788    23.118253 
 2750000    297.00004    65.307275    260.79178   -26.424727    23.120207 
 2760000    295.85047    476.65229   -580.27124    58.795984    23.127214 
 2770000    299.73382    419.12598   -208.99627    21.176547    23.134429 
 2780000     297.5802    41.566714   -404.28935    40.964619    23.135776 
 2790000    301.65923    990.60235   -332.82724     33.72372    23.170241 
 2800000    299.96427   -218.75656    160.64384   -16.277237    23.195569 
 2810000    298.88837    390.02695   -752.23724    76.220438    23.204796 
 2820000     301.7307   -891.90778    -981.2069    99.420789    23.222566 
 2830000    296.71203    558.36052   -815.89949    82.671015    23.246842 
 2840000    294.83307    142.40852   -313.61452    31.776992    23.263912 
 2850000    296.58164    51.382056    590.87591   -59.870501    23.297664 
 2860000    296.25434   -93.828867   -598.12382    60.604896    23.309473 
 2870000    301.06899    368.57987   -602.99287    61.098252    23.322107 
 2880000    300.16763   -107.16818   -1288.0903    130.51575    23.312305 
 2890000     297.0543    297.11129   -1070.7163    108.49033    23.302237 
 2900000    298.53302    481.29015   -172.80918     17.50989    23.317836 
 2910000    303.73835    248.29731    131.45402   -13.319578    23.342605 
 2920000    296.71237     1293.807   -1414.8347    143.35813    23.345893 
 2930000    297.61228    -51.55616    96.403179   -9.7680521    23.349577 
 2940000    299.30015    969.68683    -370.1995    37.510464    23.365366 
 2950000    298.57899    612.51414   -483.89587    49.030749    23.384876 
 2960000    293.88932   -852.90139    1103.7674   -111.83924    23.407686 
 2970000    299.72537    6.3834151   -185.82931    18.829155    23.403027 
 2980000    294.68833    195.41033   -364.62613    36.945743    23.376735 
 2990000    300.29473    1378.7914      128.616   -13.032017    23.368202 
 3000000    293.48105   -1263.5617    270.79728   -27.438534    23.368943 
 3010000    301.92749    549.22926   -240.52488    24.371184    23.356084 
 3020000    305.98445    887.62026    -742.0636    75.189595    23.348184 
 3030000    297.53808    56.143055    99.629481   -10.094957    23.339656 
 3040000    292.04488    73.093047   -227.90705    23.092681    23.326523 
 3050000    296.16909     553.8171   -449.59521    45.555235    23.328387 
 3060000    298.87921     304.9171   -102.50991    10.386817    23.313685 
 3070000    297.06495    492.95635    523.03725   -52.996749    23.291702 
 3080000    298.26285    142.68966   -594.73689    60.261715    23.290194 
 3090000    302.07717   0.47717898   -65.691367    6.6561778    23.286776 
 3100000    298.40153    50.903869   -441.36565    44.721374    23.293058 
 3110000    297.22402    315.38527    113.04195   -11.453976    23.288058 
 3120000    298.77947   -83.392923   -80.173925    8.1236229    23.279306 
 3130000    296.25819    51.726411    209.70056   -21.247909    23.272226 
 3140000    296.42388   -732.83817    97.571399    -9.886422    23.274717 
 3150000    299.17368    64.706229    338.29971   -34.278219    23.258614 
 3160000    296.08694    923.65139   -248.86119     25.21586    23.274149 
 3170000    299.06055    427.28181   -81.016773    8.2090245    23.274898 
 3180000    297.46032   -649.05234   -873.46593    88.503936    23.258956 
 3190000    300.12353    293.85668    320.54557    -32.47928    23.243303 
 3200000    294.91151    291.07402   -659.51365     66.82522    23.244161 
 3210000    303.08115   -159.17375    880.31938   -89.198361     23.25259 
 3220000     296.9289    404.67374   -605.13205    61.315005    23.253093 
 3230000    299.97466   -52.495028    242.99793   -24.621765    23.233697 
 3240000    299.01282   -714.90844   -354.96507    35.966836    23.225163 
 3250000    299.87272   -699.70017    577.67443   -58.532862    23.223164 
 3260000    296.03581   -515.44391   -699.25722    70.852238    23.223579 
 3270000    297.33463   -460.81522   -613.49397    62.162276    23.218209 
 3280000    298.36908    350.57191    131.18285   -13.292102    23.218831 
 3290000    297.42063    736.76885    121.43319   -12.304218    23.217603 
 3300000    302.82197     208.6428   -497.01114    50.359653     23.21534 
 3310000    298.59812    54.292399    159.50182   -16.161522      23.2375 
 3320000    295.45317   -474.08049   -666.21849    67.504589    23.273935 
 3330000    300.65441   -143.61244    -522.5451    52.946882    23.292553 
 3340000    299.57073   -484.57291   -237.04687    24.018775    23.295509 
 3350000    301.37149     -429.313   -551.23094    55.853475    23.307726 
 3360000    296.35326   -244.11025     772.4602    -78.26953    23.332014 
 3370000    296.53284    14.889573    219.80075   -22.271311    23.362809 
 3380000    298.14267    651.57584   -213.01219     21.58346    23.382244 
 3390000     294.9099    205.80917    657.13929   -66.584638    23.390536 
 3400000    297.59132   -94.305546   -668.72192    67.758248    23.397042 
 3410000    299.90278   -235.05856    -631.6033    63.997204    23.422357 
 3420000    296.76545   -511.56979    306.63193    -31.06948    23.422775 
 3430000    296.56803    782.64564     87.51332   -8.8672871    23.435286 
 3440000    299.55002   -113.35283   -86.923723    8.8075462    23.469327 
 3450000    300.33395    694.49376   -314.22355    31.838701    23.480518 
 3460000    297.84081    55.304576   -134.29039    13.606974    23.490658 
 3470000    304.28998    734.23664   -1785.4543    180.91115    23.505358 
 3480000    299.96588    310.75983    109.68522   -11.113855    23.525279 
 3490000    297.11462   -598.05695   -667.99681    67.684777    23.544461 
 3500000    295.92595   -659.12732    235.90197   -23.902767    23.584126 
 3510000    301.23431    511.66324   -1103.2346    111.78524    23.603831 
 3520000      297.405    306.62124   -176.93533    17.927972    23.609063 
 3530000    294.75999    918.44948    225.61723   -22.860665     23.61235 
 3540000    301.73809     2.445785   -1254.0944    127.07111    23.618743 
 3550000    298.84085    622.12306   -373.73855    37.869058    23.619244 
 3560000    301.05723   -357.07178     343.6886   -34.824248    23.632143 
 3570000     295.2185   -42.015179   -534.65482    54.173899    23.653002 
 3580000    299.34849    620.27749   -546.56295    55.380491    23.652203 
 3590000    297.00847    -86.78632     294.1479   -29.804536     23.64916 
 3600000    300.50152   -459.42841    209.02773   -21.179735    23.647474 
 3610000    300.12988    32.041055   -647.10445    65.567859    23.647432 
 3620000    299.13664   -19.121652   -1301.6342    131.88809    23.650883 
 3630000    298.12151    1133.3525    -764.0519    77.417559    23.660417 
 3640000    298.67401   -433.44811    471.44558   -47.769223     23.66225 
 3650000    299.34704    544.38658   -1116.1761    113.09654    23.661103 
 3660000    296.56625    1045.3757    105.99574   -10.740018    23.662508 
 3670000    299.40983      342.946   -160.87282    16.300438    23.679033 
 3680000    297.15665    394.05448   -674.89298    68.383531    23.686512 
 3690000     298.1491     829.5835   -267.99215    27.154305    23.695872 
 3700000    299.12065     194.0805   -451.06332    45.703991    23.687126 
 3710000    297.76466    923.83032   -440.18359    44.601602    23.677339 
 3720000     292.9466    726.80821    724.15435    -73.37494    23.650864 
 3730000    299.04257    1052.5604    553.28057   -56.061154    23.646314 
 3740000    292.28582    485.82525   -191.10719    19.363936    23.640407 
 3750000    299.76064   -274.36325    377.76044   -38.276576    23.641609 
 3760000    295.04686    12.247471   -755.42635    76.543575    23.630824 
 3770000    296.75205   -241.70688   -1065.4023    107.95188      23.5997 
 3780000    296.63746    419.54979   -249.37056    25.267472    23.565297 
 3790000    298.99197    443.79086   -198.73917    20.137247    23.536679 
 3800000    295.95691   -502.77258    -290.5351    29.438469    23.529178 
 3810000    296.94493    598.94321    539.40587   -54.655299    23.525765 
 3820000    299.96568   -326.22872   -366.31707    37.117077     23.51764 
 3830000    297.06923    350.96261   -53.148531    5.3852749    23.495232 
 3840000     293.7209    797.38165    -252.2326    25.557469    23.486034 
 3850000    298.99566    437.34849   -694.63092    70.383478    23.496352 
 3860000    298.97368   -112.25608    186.17502   -18.864184    23.495531 
 3870000    299.41951    598.78986   -542.56279    54.975175    23.488689 
 3880000    298.04432   -127.29922   -129.72992    13.144884    23.483109 
 3890000    297.30662   -416.66178   -973.28399       98.618    23.481255 
 3900000    297.87556    382.28358   -588.66862    59.646848    23.478862 
 3910000    300.35099   -538.95669   -814.64216    82.543617    23.485597 
 3920000    296.82272   -5.5721533   -720.20966    72.975244     23.49636 
 3930000    296.15018    280.25954   -415.02702    42.052613    23.494929 
 3940000    296.95699   -753.96447   -382.02048    38.708225    23.494664 
 3950000     297.0156   -1023.4891   -507.50759    51.423206    23.493979 
 3960000    301.12147   -62.007157   -303.70232    30.772638     23.50543 
 3970000    299.69296    156.77272    222.79855   -22.575063    23.524843 
 3980000     297.8151   -901.83723   -516.67337    52.351929       23.538 
 3990000    298.72336    71.003385    173.42527   -17.572315    23.556621 
 4000000     299.6434    618.53331    37.641809   -3.8140562     23.55796 
 4010000    299.91781    245.50847   -1369.1575    138.72988    23.548281 
 4020000    300.41115    281.39514   -352.45719    35.712725    23.528261 
 4030000    296.09991    539.32627   -35.285094    3.5752621    23.515541 
 4040000     297.4412   -194.88298   -244.06754    24.730143    23.496701 
 4050000    300.57335     21.30156   -96.957907    9.8242599     23.47602 
 4060000     299.1617   -482.44658   -381.13336    38.618338    23.465963 
 4070000    295.49812   -150.20815   -501.77592    50.842445    23.459772 
 4080000    294.70884   -797.74038   -372.15758    37.708867    23.448054 
 4090000    297.59016    58.630855   -15.176917    1.5378011    23.429525 
 4100000    302.06803    50.291432   -41.665027    4.2217088    23.439868 
 4110000    299.03065    -29.36388   -36.849884    3.7338144    23.438382 
 4120000    294.03687    425.44716   -411.59622    41.704987    23.444336 
 4130000    298.67551    225.29632   -137.82397    13.965014    23.456188 
 4140000    294.67298   -551.22191    480.46454    -48.68307    23.470142 
 4150000    297.24991   -523.50086   -265.48139    26.899902    23.481178 
 4160000    299.75446   -174.48161    360.65615   -36.543485    23.483971 
 4170000    298.50136    197.74845   -636.17912     64.46085    23.481402 
 4180000     297.8616   -295.78424    -941.4454    95.391955    23.493372 
 4190000    297.95174   -227.46008   -59.838903    6.0631769    23.498057 
 4200000    298.63449    56.250738   -667.95043    67.680078    23.490013 
 4210000    298.14604    760.63676    842.97672   -85.414616    23.493645 
 4220000    296.04332   -413.84368    177.43129   -17.978226    23.485508 
 4230000    299.29322    44.335831   -293.30957    29.719592    23.479922 
 4240000    296.62999    475.90189    491.91008   -49.842789      23.4754 
 4250000    300.12014    538.34003    235.36265   -23.848121    23.476975 
 4260000    298.88391   -476.58065    516.77953   -52.362686    23.480469 
 4270000    297.00836    1383.3686    358.28945   -36.303679    23.474141 
 4280000    298.44278   -389.46736   -633.59599    64.199114    23.459548 
 4290000    296.73829   -101.74988   -202.59511     20.52795    23.459759 
 4300000    297.41273    583.25771   -677.02766    68.599827    23.470943 
 4310000    301.43693   -45.165621   -253.55367    25.691326    23.470283 
 4320000    299.28411    93.171365   -50.888039    5.1562306    23.456692 
 4330000    294.24435    741.86613   -301.72455     30.57224    23.464666 
 4340000    293.62752    707.23039   -674.67317    68.361259    23.477176 
 4350000    298.59539    234.54584   -66.746846    6.7631241    23.506758 
 4360000    293.53135    10.662189    64.236807   -6.5087945    23.531247 
 4370000    295.84393    -111.7506    221.77347   -22.471197    23.547772 
 4380000    293.09211   -1422.5511   -1125.3332    114.02439     23.55926 
 4390000    299.22511    436.28804   -476.26153      48.2572     23.56239 
 4400000    299.29702    486.21064   -174.07621    17.638272    23.567083 
 4410000    299.55411   -39.592657   -1170.2089    118.57142    23.571082 
 4420000    297.56238    233.32338   -337.65708    34.213104    23.583514 
 4430000    299.69881    -189.1421     256.0112   -25.940334    23.611254 
 4440000    298.06087    370.79284    -273.8241    27.745227    23.611144 
 4450000    298.55816     41.69818   -846.86283    85.808376    23.621637 
 4460000    299.22891    550.14998   -251.56978    25.490307    23.630596 
 4470000    290.37126   -513.40496   -1483.8073    150.34677    23.649628 
 4480000     298.9512    1140.8364   -793.14099    80.365011     23.66096 
 4490000    300.60505    108.59724    92.960373   -9.4192098    23.660598 
 4500000    297.96911    39.664794    -271.5794    27.517783    23.662777 
 4510000    302.26842   -139.15843   -508.09104    51.482325     23.66724 
 4520000    297.21097   -148.47278   -521.20109    52.810701    23.665812 
 4530000     296.8568    223.64958    102.28177   -10.363701    23.670411 
 4540000    297.49985    207.16615    776.45188   -78.673987    23.691183 
 4550000    296.90848   -418.88865   -291.77303    29.563902    23.698976 
 4560000     298.7346    102.51162    126.89937   -12.858079    23.724307 
 4570000    299.65269    308.13992   -782.72505    79.309616    23.734163 
 4580000     299.9509     898.0098   -1201.0007     121.6914    23.745888 
 4590000    296.05617    868.52465   -419.77343    42.533543    23.759966 
 4600000    298.84334    118.67118    53.274929   -5.3980822    23.770165 
 4610000    300.49087    968.64431   -319.43055    32.366301    23.801223 
 4620000     297.9557    331.17777   -356.74198    36.146881     23.82955 
 4630000    299.29965    58.125388   -123.35334    12.498778     23.83015 
 4640000    298.25317    878.67721   -496.09781    50.267111    23.832646 
 4650000    295.82959    138.04816   -89.562113    9.0748811    23.833634 
 4660000    294.61301     375.5664   -196.82434    19.943226    23.843237 
 4670000    297.21786   -359.93385    179.86399   -18.224718    23.862017 
 4680000    295.61234    667.78457   -279.35524    28.305669     23.87679 
 4690000     295.0467    116.77172   -7.5319258   0.76317239    23.875667 
 4700000    299.09557    156.11943    603.19066   -61.118294    23.877962 
 4710000    299.83225    457.14644    348.39445   -35.301068    23.861783 
 4720000    299.33241    20.698547   -600.65092    60.860955    23.852003 
 4730000    299.52912    679.25966   -433.03385    43.877155    23.840716 
 4740000    296.27082   -219.79141     -236.525    23.965895    23.830418 
 4750000    305.07526   -806.96643    510.42121   -51.718429    23.808779 
 4760000    295.41088   -169.23198    239.86829   -24.304654    23.799994 
 4770000    299.44819   -357.19319   -242.18831    24.539731    23.808056 
 4780000    295.30434   -92.619649   -23.240678    2.3548617    23.829963 
 4790000    298.52412   -116.61937    122.83401   -12.446157    23.850915 
 4800000    294.11144    428.63761   -613.68098    62.181226    23.868544 
 4810000     300.4355    602.17395   -307.70813    31.178526    23.894749 
 4820000    298.26314    257.37385    285.90244   -28.969065    23.915022 
 4830000    300.18637   -1271.2456   -406.15973    41.154135    23.926863 
 4840000    299.00824    255.90172   -1275.8748    129.27801    23.930003 
 4850000    297.02511    288.16983    231.59433   -23.466295    23.920695 
 4860000    295.20187     754.6879   -785.42632    79.583322    23.925008 
 4870000    297.28101    740.77729   -876.60672    88.822176    23.943936 
 4880000    295.76754    994.02937    169.31588   -17.155932    23.946786 
 4890000     297.7575    -580.2479    341.44126   -34.596536    23.955665 
 4900000    294.01605   -262.96834    73.123145   -7.4092027     23.95327 
 4910000    295.66144   -5.0549653   -240.69357    24.388276    23.950066 
 4920000    294.12318    173.37602   -54.013489    5.4729168    23.951983 
 4930000    294.31546   -174.05718   -411.36351    41.681408    23.964237 
 4940000    298.66125   -161.50203    440.62218   -44.646043    23.974687 
 4950000     298.9389    1238.2771   -1134.4092    114.94401    23.986059 
 4960000    295.25238    734.76413   -44.956151     4.555182    24.002407 
 4970000    296.42628   -1180.9998   -78.869305    7.9914323    24.009192 
 4980000    297.17219   -712.90757   -462.54729    46.867604    24.014263 
 4990000    296.74952    1189.5237   -315.51672    31.969732    24.005428 
 5000000    300.00478    214.65273   -185.90997    18.837327    23.984534 
 5010000    296.56602   -329.14315   -971.94747    98.482577    23.984618 
 5020000    294.59981    417.94545   -633.32877    64.172037    23.998091 
 5030000    294.79186    512.42985    416.65996   -42.218071    23.993641 
 5040000    296.73297     791.7479    133.46921   -13.523768    23.991125 
 5050000      293.064   -44.300776    -488.1405    49.460836    23.976661 
 5060000    294.39329   -476.32275   -387.20696    39.233745    23.952566 
 5070000     297.7262   -216.50427   -686.90166     69.60031    23.944941 
 5080000     298.0121   -59.518459   -795.83365    80.637845    23.941848 
 5090000    295.96263    351.05573   -71.429978    7.2376425    23.944666 
 5100000    299.48098    402.50149   -631.33092    63.969606    23.945383 
 5110000    296.42949   -82.216489    -56.14615    5.6890086    23.956917 
 5120000    297.40533   -643.12644   -523.72963    53.066904    23.951522 
 5130000    293.25619    1100.6184   -180.65946     18.30532    23.950179 
 5140000    295.26112   -147.92107   -188.73178    19.123248    23.949263 
 5150000    297.64097     494.9914    -246.5427    24.980939    23.945088 
 5160000    298.01333    185.79615   -776.55881    78.684821    23.938912 
 5170000    296.09813    253.38065   -38.673832     3.918626    23.934243 
 5180000    300.23972   -127.04327   -1133.2822    114.82982    23.927805 
 5190000    298.66758    733.70047    493.65523   -50.019616    23.924295 
 5200000    295.10049    746.59102    458.07126    -46.41407    23.907044 
 5210000    299.92369    90.207334     445.7698   -45.167625    23.881848 
 5220000     295.8641   -285.41051   -1116.3762    113.11682    23.869122 
 5230000    299.47159   -280.34706    -97.37724    9.8667488    23.859258 
 5240000     299.5759    126.93304   -575.37956    58.300334    23.856317 
 5250000    302.08053    314.43009   -372.09604    37.702632    23.851224 
 5260000    296.33333   -1008.4096   -73.431705    7.4404675    23.842992 
 5270000    298.60595   -16.549121    433.99802   -43.974849    23.845163 
 5280000    299.82898    702.39966    163.59485   -16.576248    23.844688 
 5290000    302.99649    539.81648    -111.9916    11.347549    23.838358 
 5300000    297.92316   -1120.8202   -226.54991     22.95517    23.845266 
 5310000    300.02766    497.27665   -350.14857    35.478804    23.842051 
 5320000     299.5903    647.92661   -1016.4653    102.99334     23.85325 
 5330000    295.93997    -95.78126    431.59518   -43.731382    23.847476 
 5340000     296.6184    147.57486   -867.05443     87.85429    23.845694 
 5350000    295.61173    883.49553   -336.24731    34.070259     23.84212 
 5360000    299.49355   -342.55792   -378.30766    38.332024     23.83312 
 5370000     301.7359   -94.230485   -1084.0758    109.84398    23.837592 
 5380000    300.69677    183.60215   -572.74082    58.032963    23.840152 
 5390000     299.0799    413.41868   -559.00478    56.641159    23.840671 
 5400000    294.69187    203.39377   -382.36227    38.742857    23.842331 
 5410000    298.27813    370.78156    396.42481   -40.167744    23.854256 
 5420000     299.9763    836.92855   -641.36962    64.986777    23.859712 
 5430000     296.7673   -487.93382   -436.46862    44.225182    23.875882 
 5440000    301.34697    1697.3907   -643.42077     65.19461    23.888051 
 5450000    300.31618   -34.098363    197.74372   -20.036382    23.897341 
 5460000    299.04848    325.89375   -185.93067    18.839425    23.915313 
 5470000    298.35479    344.92662    475.83586   -48.214069     23.92829 
 5480000    296.68719   -244.38934   -289.95559    29.379751    23.938375 
 5490000    296.34006    679.84958   -7.2289804   0.73247644     23.93647 
 5500000    294.43539   -519.47918   -262.72331    26.620439      23.9452 
 5510000    296.76509    508.94642    -229.5444    23.258586    23.952465 
 5520000    298.90069    533.46238    793.29105   -80.380215    23.961082 
 5530000    296.59912   -242.58482    158.11379   -16.020879    23.957589 
 5540000     298.2363     83.23917   -17.820915    1.8057042    23.955407 
 5550000    299.68511   -268.23524    429.43085    -43.51208    23.951659 
 5560000    294.24845   -629.72688   -123.15674    12.478857    23.946528 
 5570000    296.80209   -910.25595   -1131.4991    114.64915    23.956675 
 5580000    300.01926    592.12877   -5.3855999   0.54569591    23.956103 
 5590000    296.50929    158.34628   -254.07527    25.744177     23.94822 
 5600000    298.19608    1438.2695   -860.37654    87.177653    23.946151 
 5610000    296.05467    80.627753   -379.71197    38.474315    23.958894 
 5620000    297.72918    786.67605    461.97874   -46.809996    23.957844 
 5630000    295.11302    70.438591   -876.23637     88.78465    23.959241 
 5640000    296.67999   -930.88143   -178.53182    18.089736    23.964584 
 5650000    297.87905   -612.23531   -1145.9185    116.11019    23.965777 
 5660000    299.02689   -809.42841    74.275449   -7.5259598    23.964244 
 5670000     294.1192   -37.309489   -319.10518    32.333333    23.974114 
 5680000    299.98844    426.07003   -122.87767     12.45058    23.978105 
 5690000    300.44019   -332.43958     344.8462   -34.941541    23.975845 
 5700000    297.85575    734.82605   -223.68968    22.665357    23.960121 
 5710000    297.26224   -639.85095   -501.36256    50.800562    23.960389 
 5720000     301.1259    547.47588   -467.34747    47.353983    23.965015 
 5730000    300.15266   -1112.2444    248.31651    -25.16067    23.960324 
 5740000    298.08521    72.229398   -417.06203     42.25881    23.971886 
 5750000    299.43786    568.29169   -417.93846    42.347615    23.982085 
 5760000    298.61646   -599.89122   -1693.7109    171.61526    23.995033 
 5770000    296.16308    219.85737   -265.52916    26.904742    24.018021 
 5780000    299.40442   -99.457798    -714.6544    72.412357    24.042753 
 5790000    297.95681    425.31885    52.770701   -5.3469912    24.064931 
 5800000    303.36461   -71.572499   -1347.4479    136.53016    24.091561 
 5810000    298.91436    135.05214    697.96676   -70.721482    24.110491 
 5820000    295.27914   -950.77817   -508.96979    51.571364    24.128341 
 5830000    298.87381   -215.90521   -225.58638     22.85754    24.137303 
 5840000    298.12928   -567.22755   -422.86015    42.846304     24.15887 
 5850000    296.86404   -420.62634   -490.56651    49.706651     24.17227 
 5860000     297.7389   -494.05378   -436.40222    44.218455    24.189589 
 5870000    302.75036   -513.80438   -416.54904    42.206831    24.204075 
 5880000    299.30806    651.01707    -731.7535    74.144923    24.215119 
 5890000    295.80045    264.58871   -443.57588    44.945326    24.230168 
 5900000    297.77098    1378.5529     578.1579   -58.581849    24.242624 
 5910000    296.12938    266.78011    125.29919    -12.69594    24.246466 
 5920000    295.21172   -179.61198   -1202.7579    121.86945    24.232722 
 5930000    295.78843    4.0352292   -799.64231    81.023758    24.238704 
 5940000    299.09694   -296.80654    34.261485    -3.471545     24.24813 
 5950000    296.68054    282.85786    140.42842    -14.22891    24.266585 
 5960000    300.04862    186.69185   -834.18922    84.524223    24.275316 
 5970000    297.48183    -621.0913    200.21294   -20.286577    24.291367 
 5980000    301.93974   -392.16365   -870.95364    88.249377    24.289165 
 5990000     293.9028    402.32354    287.66984   -29.148147    24.288499 
 6000000     298.6195    754.08603    741.86223   -75.169191     24.29019 
 6010000    297.84192    256.48653    543.09043   -55.028638    24.288477 
 6020000    297.65242   -175.25626   -691.48467    70.064684    24.307553 
 6030000    297.32591   -810.15792   -674.08573    68.301737    24.315368 
 6040000    297.60045   -470.26124   -474.52878    48.081628    24.316324 
 6050000    296.79573   -193.91628    -1053.259    106.72146    24.326457 
 6060000    296.64939    480.54537    289.89391     -29.3735    24.335455 
 6070000    297.89416   -216.12298   -421.09634    42.667587    24.342866 
 6080000    298.29174    768.75187   -536.94868    54.406325    24.348926 
 6090000    296.33978    -1075.671   -966.93645    97.974836    24.355743 
 6100000    297.52482    358.94338    445.77795   -45.168451    24.365017 
 6110000    299.70897    -223.1752   -1204.3219    122.02792    24.366899 
 6120000    294.42255    235.13736   -431.63167    43.735079    24.368557 
 6130000    298.59362    1244.9471   -507.60767    51.433348    24.370743 
 6140000    293.21611   -188.96228   -210.66925    21.346062    24.376048 
 6150000     300.8613    841.77956   -76.215496    7.7225351    24.384652 
 6160000    297.02441   -302.43762    289.59858   -29.343576    24.377078 
 6170000     300.0778   -17.179326   -929.25688    94.156953    24.382512 
 6180000    296.22121   -60.110898   -345.41268     34.99894    24.382077 
 6190000    295.33159    -437.1578    183.53047   -18.596224    24.394458 
 6200000    297.05332   -133.71139   -211.32046    21.412045    24.396211 
 6210000    299.46033    489.62348   -761.22866    77.131494    24.403772 
 6220000    299.59769    955.22931   -695.39194    70.460588    24.408726 
 6230000    297.50466   -584.12037   -102.57646     10.39356    24.410954 
 6240000    296.08341   -853.41897   -1240.7735    125.72138      24.4057 
 6250000    302.35162    80.480349    -104.5776    10.596325    24.405421 
 6260000    296.23673     844.8467   -14.302181    1.4491685     24.39657 
 6270000    293.92711    -513.8996   -455.25734     46.12895    24.382833 
 6280000    297.04185   -207.25308   -169.80887    17.205884    24.374332 
 6290000    296.86475   -156.48855   -150.46114    15.245475    24.365263 
 6300000    298.80789   -49.619288   -606.97638    61.501882    24.359277 
 6310000    299.43857    1304.8388    117.65169   -11.921057    24.355634 
 6320000    302.67027   -1080.6664   -502.65976       50.932    24.362107 
 6330000     297.1458   -487.10758   -130.84186    13.257551    24.361273 
 6340000    295.98268   -150.68481    153.99699   -15.603745    24.359944 
 6350000    301.07063    2133.9146   -300.44945    30.443041    24.354084 
 6360000    297.68553   -536.55792    49.073183   -4.9723403    24.343162 
 6370000    300.58283    212.37113    631.40152   -63.976759    24.333597 
 6380000    302.01189   -880.13649   -113.77392    11.528142    24.325324 
 6390000    300.74642   -405.68118     570.0636   -57.761694    24.327151 
 6400000    295.79538   -419.63937   -126.07428    12.774476    24.339676 
 6410000     301.4297    598.29305      245.662   -24.891702    24.339627 
 6420000    299.39387    490.69784   -362.43368    36.723593    24.334817 
 6430000    295.68905    957.53628   -667.96335    67.681387    24.341401 
 6440000    291.22126   -210.37379     453.4065   -45.941413    24.337143 
 6450000    298.83702   -97.239421   -332.57105    33.697761    24.333587 
 6460000    294.87494    18.579401    40.723304   -4.1262888    24.337451 
 6470000    295.36223    112.73313    -640.6848    64.917387    24.341521 
 6480000    295.80766     377.1948    57.924279   -5.8691776    24.347165 
 6490000    296.02145    -191.0252     1095.191   -110.97023    24.352982 
 6500000    297.27897   -126.81268    210.43796   -21.322627    24.354939 
 6510000    295.85329   -33.293729   -429.42328    43.511314    24.359637 
 6520000    294.09469    168.30691    342.53024   -34.706876    24.361211 
 6530000    300.62392    441.75422   -24.556419    2.4881792    24.366739 
 6540000    298.34464       272.19   -118.35617    11.992439    24.367422 
 6550000    297.91576    49.906523   -379.54865    38.457767    24.366839 
 6560000    295.54474    32.944276   -191.35835    19.389385    24.368858 
 6570000    302.41079    1137.7556    475.39947   -48.169852    24.376097 
 6580000    298.23438    5.6247749   -79.407288    8.0459435    24.380458 
 6590000    302.81751   -348.23529   -319.89767    32.413632    24.408828 
 6600000    296.26435    498.45003    113.87773   -11.538661     24.40745 
 6610000    301.86009    223.13836   -586.72153    59.449559    24.416134 
 6620000    297.95617   -392.85347      132.234    -13.39861     24.42689 
 6630000    292.24712    -158.9397   -224.83303    22.781206    24.432994 
 6640000    301.68012  -0.45220742    195.62528   -19.821732    24.438388 
 6650000    296.75958    493.70434   -475.24861    48.154565    24.444742 
 6660000     294.8016    170.20905    275.00146   -27.864523    24.452107 
 6670000    296.73808    211.30553   -4.4082558   0.44666652     24.45243 
 6680000    295.30025    67.537492   -523.50353    53.043995    24.451482 
 6690000    298.05103    808.51639   -187.96433    19.045486    24.453728 
 6700000    296.27604    586.25888   -630.24834    63.859913    24.450649 
 6710000    297.20952   -533.70588   -338.93792    34.342885    24.450597 
 6720000    293.40744   -155.06714   -933.31443    94.568085     24.45468 
 6730000    299.45457   -337.97462    389.38727   -39.454665    24.451346 
 6740000     298.8718    173.72611   -258.98612    26.241768     24.43986 
 6750000    298.17616    156.13855    635.96974   -64.439634    24.436229 
 6760000    302.09995    203.98844    -322.5645    32.683848    24.440824 
 6770000    296.30773    518.40669   -577.84965    58.550616    24.444673 
 6780000    299.76562    458.10413    41.393776   -4.1942243    24.452889 
 6790000    296.99321    1531.6719   -603.36649     61.13611    24.459609 
 6800000    298.29049   -695.70722   -210.97288    21.376827    24.466967 
 6810000    300.55971    150.52383    403.20295   -40.854539    24.470723 
 6820000    303.83306    230.71941   -219.18798    22.209222    24.479876 
 6830000    298.10939   -151.48883    464.44339   -47.059726    24.485866 
 6840000     304.3114    674.73967   -891.45779     90.32696    24.488413 
 6850000    295.90252    -660.2632    80.375425   -8.1440399    24.492156 
 6860000    296.32015    -27.44048   -616.19181    62.435635    24.500407 
 6870000    300.41529    765.82357    -234.5059     23.76131    24.496587 
 6880000    300.82986    634.19137   -702.02047    71.132224    24.499983 
 6890000    296.04083    617.89295   -188.91345    19.141656    24.514042 
 6900000    297.63903    288.23905    -121.4879    12.309762    24.515349 
 6910000    296.62028   -888.92368    733.21985   -74.293501     24.51962 
 6920000    297.85138    251.04094   -806.19876    81.688089    24.520841 
 6930000    297.55346   -336.13168    19.859837    -2.012298    24.532889 
 6940000    301.87854   -215.71572   -617.02755    62.520317    24.541622 
 6950000    296.29885    193.83749    -498.0681    50.466751     24.54235 
 6960000    301.38263    630.51436   -596.07669    60.397471    24.544773 
 6970000    293.87133    957.06428   -386.59473    39.171711    24.554995 
 6980000    298.57547   -375.27413   -262.51134    26.598962    24.550225 
 6990000    295.58826    1207.5122    23.332411   -2.3641565    24.544533 
 7000000    296.72909    334.90909   -494.14597    50.069341    24.544681 
 7010000    294.02529   -269.25323    -4.687727   0.47498394    24.541866 
 7020000    294.80685   -110.48709   -1085.9067     110.0295    24.540216 
 7030000     296.2443    60.650442   -286.03778    28.982778    24.527128 
 7040000    300.08435   -313.22655     434.8645   -44.062646    24.507679 
 7050000    291.91149      491.097   -981.63543     99.46421    24.495555 
 7060000    296.73404    279.89178   -658.33493    66.705787    24.488812 
 7070000    294.36362   -165.49292   -645.21422    65.376331    24.487798 
 7080000    299.03974   -404.04969   -464.43761    47.059141    24.492814 
 7090000     295.4839    1336.7833   -178.99012    18.136174    24.491264 
 7100000     296.2231   -18.064827   -152.55754    15.457893    24.493451 
 7110000     296.0737    9.8009993   -425.32066    43.095616     24.48311 
 7120000    301.27917    922.31023   -761.56644     77.16572    24.474606 
 7130000    301.08351   -158.45695    533.01194   -54.007435    24.475008 
 7140000    299.23897    50.060176    82.246642    -8.333641    24.468778 
 7150000     300.0388    666.57184   -829.84723    84.084271    24.467346 
 7160000    294.31943    265.70566    516.76324   -52.361035    24.464002 
 7170000    298.44947   -312.14156    27.045368   -2.7403719    24.464135 
 7180000    300.80377    738.54276    -324.1703    32.846555    24.472413 
 7190000    299.90932    1087.3204     168.2062   -17.043493    24.479848 
 7200000    299.76022    -370.1786   -470.72235    47.695942    24.484895 
 7210000    295.96151   -192.97726   -587.22188    59.500257    24.476312 
 7220000    298.21302    699.55194   -190.18585    19.270581    24.483858 
 7230000    297.08248   -273.40467   -23.665662    2.3979232    24.487035 
 7240000    296.78951    1412.9598    428.33612   -43.401157    24.480533 
 7250000    300.85372    47.630787   -815.56262    82.636882    24.476275 
 7260000    296.78638    230.95797   -231.48234    23.454948    24.471519 
 7270000    298.55753    407.21534     331.2628   -33.565203    24.461444 
 7280000    297.78569    930.74744   -598.60847    60.654003    24.449746 
 7290000    300.72107    329.11478   -97.040407    9.8326192    24.437523 
 7300000    298.62341    34.513857    217.58797   -22.047101    24.435714 
 7310000    296.42175     -105.443    401.34324   -40.666103    24.430644 
 7320000    295.53057    820.74145    -1048.008    106.18941    24.425841 
 7330000    298.71116   -783.59603    -1005.665    101.89901    24.426679 
 7340000    298.38582   -202.94394   -156.48441    15.855783    24.422228 
 7350000    299.23191   -432.05685    109.62861   -11.108119    24.414666 
 7360000    298.44847   -464.06222    823.84618   -83.476214    24.414784 
 7370000     297.2225     207.3314   -122.21654    12.383591    24.410157 
 7380000    301.33007   -443.97372    -237.2204    24.036357    24.410057 
 7390000    299.31079    785.34416    842.86926   -85.403727    24.408272 
 7400000    297.44388   -995.02197    6.1311286   -0.6212366    24.406342 
 7410000    297.44654    663.57152   -567.69774    57.521974    24.408284 
 7420000    294.93555   -918.72852    -244.9206     24.81658     24.40826 
 7430000     299.4769    93.408052      503.465   -51.013591    24.411157 
 7440000    298.99535    562.90687   -1057.7484    107.17636    24.423093 
 7450000     295.9416   -1122.2748    132.92982   -13.469114    24.425679 
 7460000    297.62018   -168.14242   -413.48331    41.896197    24.430007 
 7470000    298.83138   -251.19953    907.88623   -91.991572    24.442507 
 7480000     300.3441    597.64485   -778.90097    78.922141    24.446664 
 7490000    302.88806    639.18385    63.997214   -6.4845177    24.454755 
 7500000     292.5044    206.59101    -624.4179    63.269143    24.460977 
 7510000     299.7405    448.98107    4.8862668  -0.49510099    24.464134 
 7520000    296.32553    634.62607   -922.44036     93.46627    24.463831 
 7530000    296.72986    970.43427   -1453.6392    147.28999    24.470482 
 7540000    297.41046    972.58255    333.79863   -33.822146    24.473532 
 7550000    294.98089   -235.85829   -562.34957     56.98007    24.483995 
 7560000    294.91989    369.22688    313.72676   -31.788364    24.476968 
 7570000    301.06589    1156.8465     227.8681   -23.088735    24.484906 
 7580000    297.21448   -696.79162   -269.41589    27.298565    24.486172 
 7590000    299.16492    643.78554    940.55412   -95.301646    24.484536 
 7600000    302.65988   -424.89034   -785.50472    79.591266    24.489631 
 7610000    295.19984   -367.10097    13.449975   -1.3628187    24.500143 
 7620000    298.36662    773.91508    260.77202   -26.422725    24.510565 
 7630000    296.16638   -718.72485   -908.11321    92.014571    24.518571 
 7640000    298.31454    386.63123   -450.71407    45.668603    24.517061 
 7650000    303.40763   -749.97975     89.90014   -9.1091317    24.523083 
 7660000    298.65846    527.72566   -705.94009     71.52938    24.521749 
 7670000    295.36526    453.82262    123.85171   -12.549275    24.525726 
 7680000    296.69003    -57.33519   -400.30818    40.561227    24.533291 
 7690000    298.65513    109.31326    -845.0347    85.623141    24.530292 
 7700000     299.4521    985.12243   -56.159759    5.6903876     24.53135 
 7710000    299.42645     1357.639   -390.42356    39.559668    24.532622 
 7720000    293.37988    580.46737   -162.48241    16.463531    24.538144 
 7730000    295.87229   -281.05124   -298.39274    30.234644    24.542191 
 7740000    301.34494   -389.59773   -246.92983    25.020165    24.545767 
 7750000    296.83456   -459.13252   -1473.8724    149.34013     24.55238 
 7760000     299.8504    727.33734   -192.23459     19.47817    24.557572 
 7770000    297.80729   -113.95779   -161.80789    16.395184    24.566818 
 7780000    297.20122    54.043234   -508.22233    51.495627    24.572111 
 7790000    299.39022     564.0159   -343.12819    34.767463    24.581737 
 7800000    298.13229   -469.18155   -395.72003    40.096332    24.586823 
 7810000    300.77824    644.72329    -712.9164    72.236254    24.590274 
 7820000    296.58858   -361.31677   -610.32632    61.841314    24.592355 
 7830000    297.12162    696.06868    147.35963   -14.931215    24.600611 
 7840000     299.9722    472.75231    -144.4336    14.634734    24.599771 
 7850000    300.31039   -951.95031   -376.30361    38.128964    24.594795 
 7860000    296.80907    619.13796    363.40356   -36.821866    24.582538 
 7870000    298.45438   -295.03337   -566.69383    57.420253    24.586212 
 7880000    295.44704    411.80087    134.10072   -13.587756    24.587487 
 7890000    295.16471    210.35802    200.90058   -20.356252    24.583939 
 7900000    292.64316    -470.8452   -149.32615    15.130472    24.583735 
 7910000    296.09153   -990.18361    288.79524   -29.262177    24.574906 
 7920000    296.85955    268.95663   -408.98663    41.440571    24.572627 
 7930000     297.4151   -386.22816   -11.442512    1.1594125    24.567565 
 7940000    295.82633   -688.02141    92.961456   -9.4193196    24.564302 
 7950000    296.34613    458.39916    61.942738   -6.2763479    24.560144 
 7960000    300.31645   -162.15642   -25.202713    2.5536649    24.555573 
 7970000    299.47806    482.00489    143.41967   -14.531998    24.548756 
 7980000    297.05334   -856.88318    121.34556   -12.295339    24.543695 
 7990000    297.61595     691.5302   -61.205504    6.2016477    24.539794 
 8000000    298.30504   -366.11154   -713.35662    72.280859     24.53302 
 8010000    299.82067    683.94917     -529.918    53.693941    24.525062 
 8020000    300.17601    414.38246   -681.09947    69.012403     24.52131 
 8030000    293.45175    1025.2028   -496.85171      50.3435    24.515641 
 8040000    297.26909    906.46322    -256.4697    25.986792    24.512115 
 8050000    300.41339    706.45276   -196.87436    19.948294    24.504222 
 8060000    303.74821    390.07017    443.69775   -44.957675    24.494519 
 8070000    297.61371   -212.79259    304.59558   -30.863147    24.480088 
 8080000    300.22695   -149.70036   -88.968654    9.0147489    24.465471 
 8090000    296.82648    -922.3131    186.73447    -18.92087    24.450675 
 8100000    298.61471    245.49388    568.43821   -57.597001    24.431717 
 8110000    299.46833    781.82626    561.09211   -56.852658    24.419364 
 8120000    298.47826   -377.15337   -279.38897    28.309088     24.40743 
 8130000    297.92178   -740.06693   -541.87903    54.905893    24.399013 
 8140000    299.78142    506.70871    303.74321   -30.776781    24.388753 
 8150000    297.03044    225.91603    -354.8307     35.95322    24.376217 
 8160000    301.03086    117.87915   -786.96367    79.739094    24.362897 
 8170000    302.33782    731.54188    231.32626   -23.439133    24.340902 
 8180000    294.23385   -471.82296   -539.42743    54.657485    24.328977 
 8190000    297.03183   -389.42458    235.13932   -23.825492    24.317676 
 8200000    299.76728   -228.39551   -742.73531    75.257655    24.306809 
 8210000    300.45524    768.87377   -310.85264    31.497144    24.297195 
 8220000    293.24005    581.42644   -334.73535     33.91706    24.290028 
 8230000    296.59935    368.01715   -989.30671     100.2415    24.288897 
 8240000    299.43895   -174.31988   -182.85313    18.527593    24.283994 
 8250000     299.0763    528.82192    112.08157   -11.356665    24.280434 
 8260000    299.25652   -258.69363   -94.573746    9.5826848    24.277646 
 8270000     297.9868   -447.50888    425.35178   -43.098769    24.281668 
 8280000     291.6465    139.30613   -461.55505    46.767066    24.292453 
 8290000    300.14568    398.85991    517.55931   -52.441697    24.292934 
 8300000    298.68439    160.47409   -1035.7765    104.95006    24.294487 
 8310000    295.39453     78.61677   -201.98961    20.466597    24.290807 
 8320000    299.37046    506.16635    920.62997   -93.282831    24.282647 
 8330000    298.44904   -109.54596   -537.07462    54.419086    24.274164 
 8340000    299.76728   -55.902376    381.05287   -38.610182    24.265867 
 8350000    298.92435   -132.92268   -134.78276    13.656863    24.271687 
 8360000    293.56206   -465.79914   -255.97048    25.936209    24.276034 
 8370000    296.11364    1058.3339   -604.30643    61.231349    24.272823 
 8380000    297.02151   -769.87044   -740.25177     75.00601    24.267997 
 8390000    300.49406    335.91505   -973.79636    98.669916    24.264352 
 8400000    297.30578    193.04024   -303.53783     30.75597    24.262694 
 8410000    298.81986    83.616088   -1220.8572    123.70335    24.265623 
 8420000    297.31736   -715.31714    -924.6272    93.687851    24.258222 
 8430000    300.18913    312.57345    289.30968   -29.314303    24.250303 
 8440000    298.99882    399.92327    91.321098   -9.2531103    24.246274 
 8450000    297.13596   -956.22301    404.61188   -40.997298    24.236841 
 8460000    297.56129    297.77907     475.3477   -48.164606    24.228283 
 8470000    299.59805   -533.83232   -193.12852    19.568747    24.223796 
 8480000    299.00087   -653.97228    367.61441    -37.24853    24.222035 
 8490000    303.29498    1034.5647   -15.927215    1.6138251    24.220648 
 8500000    300.30472   -321.16186    2.1971082  -0.22262199    24.219656 
 8510000     292.1761     45.14532   -848.63529    85.987971    24.221227 
 8520000    301.27824    296.92857   -1040.0149    105.37951    24.228619 
 8530000    298.15869    323.07135   -1031.1699    104.48329    24.227764 
 8540000    297.35191   -3.0944548   -965.80035    97.859721    24.227564 
 8550000    298.83576    165.72829    479.19412   -48.554345    24.226017 
 8560000    294.72416   -818.17682   -742.53992    75.237858     24.23224 
 8570000    301.08574   -393.06775    1.9445794  -0.19703451    24.233826 
 8580000    300.76582    508.51098   -206.44345    20.917882    24.244131 
 8590000    296.83185   -515.04332   -488.48135    49.495373    24.248583 
 8600000    296.93608    619.17638    35.949126   -3.6425452    24.254322 
 8610000    298.95561   -242.78878    358.81168   -36.356593    24.263074 
 8620000    298.92263    877.26258    -566.4017    57.390652    24.270332 
 8630000    297.74937   -106.86495   -758.49458    76.854463    24.279127 
 8640000    296.77472     -346.004   -1211.7952    122.78515    24.278181 
 8650000    302.89438    81.808762   -730.08468     73.97583     24.27621 
 8660000    299.43691   -607.94199   -396.98729    40.224737    24.273211 
 8670000    295.36488    92.328343   -492.37354    49.889749    24.268214 
 8680000    299.87275    -169.6623    -455.8238    46.186347    24.269935 
 8690000    300.54233    1258.7273   -439.03133    44.484849    24.263563 
 8700000     298.7371    163.04577   -471.71697    47.796722    24.256151 
 8710000    296.70768   -602.58898   -878.26185    88.989882    24.251716 
 8720000    297.78902   -977.49009     207.1553    -20.99001    24.244381 
 8730000     298.4831   -41.739544   -1293.0697    131.02029    24.242362 
 8740000     298.3686   -338.97531    722.40016   -73.197196    24.240468 
 8750000    298.43192   -172.81383    183.55776    -18.59899    24.235876 
 8760000    298.88701    521.38859    390.80631   -39.598449    24.232562 
 8770000    297.67506   -971.54275    -265.0722    26.858441    24.222461 
 8780000     297.7731    373.58016     189.7828   -19.229742     24.21451 
 8790000    300.96562    316.29298    936.57096   -94.898052    24.209067 
 8800000    298.37373    -28.56919   -884.91111    89.663618    24.207992 
 8810000    299.28554    674.12589    418.88509   -42.443531    24.201808 
 8820000    300.10716     945.5081   -309.05331    31.314827    24.198481 
 8830000    296.57021    503.79738    411.52301   -41.697569    24.200925 
 8840000    297.96611   -985.24747   -1381.9084    140.02187    24.208068 
 8850000    295.19509   -686.11116    306.81731   -31.088264    24.212014 
 8860000    298.34474   -764.01765   -174.89973    17.721715    24.206008 
 8870000    301.18978    792.45511   -421.96058    42.755156    24.207608 
 8880000    299.57301   -152.13814   -376.58924    38.157905    24.204108 
 8890000    295.12802    354.82989    562.86107   -57.031898    24.199841 
 8900000    293.95317    191.14417   -1044.9956    105.88418    24.200476 
 8910000    299.34683   -566.59072    390.68779    -39.58644     24.19209 
 8920000    299.43611    783.86317   -392.19177    39.738831    24.191618 
 8930000    300.86388      342.897    391.20756   -39.639106     24.19299 
 8940000    296.16598    1237.7965   -204.58932    20.730013    24.191401 
 8950000    300.05585    268.16608   -76.476868    7.7490186    24.197227 
 8960000    298.33881   -179.00014   -41.987312    4.2543644    24.202074 
 8970000    297.52677    500.00221   -970.10485    98.295874    24.205378 
 8980000    296.37768   -302.27318   -391.81777    39.700936     24.21397 
 8990000    297.93017   -454.71505    -69.04544    6.9960292    24.219411 
 9000000    302.55876   -205.79492   -93.041043    9.4273837    24.221678 
 9010000    300.79213   -576.49364    808.69201   -81.940718    24.223292 
 9020000    301.03722   -181.12177   -7.0235036   0.71165651    24.221553 
 9030000    298.44615   -174.62723     385.5344   -39.064273    24.219466 
 9040000     301.9668    199.91341    177.76233   -18.011768    24.209411 
 9050000    295.66585   -399.15222   -263.24564    26.673364    24.206244 
 9060000    299.32417    1307.6677   -298.55651    30.251239    24.200789 
 9070000    297.17219    121.81402    205.45201   -20.817425    24.194607 
 9080000    295.46816    325.30545    132.11371   -13.386421    24.187031 
 9090000    299.54581   -198.74503    457.25162    -46.33102    24.183514 
 9100000    299.87611    993.07433    659.20421   -66.793867    24.176811 
 9110000     301.0123   -101.99106    149.94562    -15.19324    24.168285 
 9120000    296.14119   -99.481901   -16.077955    1.6290988    24.161589 
 9130000    295.45079    225.84805   -270.01589     27.35936    24.153785 
 9140000    297.87308    207.09316    78.765953   -7.9809602    24.153337 
 9150000    299.61257     502.9116   -492.18577    49.870723    24.152274 
 9160000    298.12458    803.63589    278.72925   -28.242241    24.148199 
 9170000    298.21369     474.3393   -335.43999    33.988457    24.149539 
 9180000     295.8108   -410.10598   -407.03821    41.243147    24.154961 
 9190000    298.85732   -595.11116   -334.48906    33.892104     24.15869 
 9200000    300.30587   -201.58052     161.8602   -16.400485    24.157178 
 9210000     301.7938    251.37577   -601.21342     60.91795     24.15777 
 9220000    301.48661   -558.28621    201.01963   -20.368314    24.162563 
 9230000    299.47539   -574.89159   -743.87038    75.372666    24.162264 
 9240000    297.90414   -600.81262   -564.39599    57.187424    24.161754 
 9250000    295.73455   -916.43191   -1038.9328    105.26987    24.158935 
 9260000    296.47477    437.85506    259.34466   -26.278097    24.163008 
 9270000    299.35962    41.409521   -378.83408    38.385363    24.163903 
 9280000    297.71939   -534.72292   -228.37605    23.140203    24.173842 
 9290000    303.40387    533.41322   -96.800126    9.8082727    24.178327 
 9300000     299.6733    113.28095   -303.08928    30.710522    24.188261 
 9310000     293.7426   -553.54557   -588.90291    59.670587    24.195247 
 9320000    295.69344   -1157.5382   -498.50762    50.511285    24.197196 
 9330000    300.29196    212.36831   -315.50323    31.968365    24.198007 
 9340000    296.96141   -421.27408    42.485261   -4.3048191    24.206513 
 9350000    297.38112   -396.83141   -272.22791    27.583493    24.207079 
 9360000    296.40997    71.577637    694.55789   -70.376078    24.205857 
 9370000    302.07172    1322.5844    -1362.923    138.09818     24.21699 
 9380000    300.42465    363.34559   -477.77952     48.41101    24.229405 
 9390000    301.96043    394.99906   -763.78104    77.390114    24.240189 
 9400000    298.38304     141.7747   -800.90421    81.151619    24.247016 
 9410000    298.94536   -1189.4964   -495.31911    50.188209    24.250547 
 9420000    298.10291    106.62085   -516.60454    52.344955    24.255244 
 9430000    302.96762    143.52439   -564.40066    57.187897    24.269718 
 9440000    295.13251     132.4058    -301.4493    30.544351    24.273857 
 9450000    297.28944    33.130801   -144.98349    14.690452    24.280302 
 9460000    295.48195    -586.1052   -804.52128    81.518119    24.279295 
 9470000    297.56246    357.15788   -317.35924    32.156425    24.271611 
 9480000    295.55301    -1233.651    -615.6132    62.377007    24.262899 
 9490000    296.69333    491.67525   -233.60702    23.670231    24.259648 
 9500000    298.95987   -1.6495197    -473.2276    47.949787    24.260148 
 9510000    296.00378    465.42735    507.62169   -51.434768    24.262533 
 9520000    300.38364   -244.49129   -1814.5158    183.85581    24.267869 
 9530000    297.80003   -692.44102   -176.10551     17.84389    24.272499 
 9540000      296.169    661.72114    -531.3862    53.842706    24.279661 
 9550000    297.73785     242.5962   -591.49071    59.932796    24.289189 
 9560000    294.36404   -157.40118    -313.1006    31.724918    24.294242 
 9570000    296.65513   -65.269007    25.347013   -2.5682861    24.298501 
 9580000    295.07613    457.43324   -1098.6241    111.31809    24.296329 
 9590000    297.84439   -13.111447   -42.745087    4.3311459    24.289376 
 9600000    292.91411     976.2418   -233.41235    23.650506    24.289994 
 9610000    296.19942    80.723548   -887.52577    89.928548    24.294563 
 9620000    299.08839   -188.79433   -406.37148     41.17559    24.289156 
 9630000     297.7392    21.169607    17.904024   -1.8141252     24.28338 
 9640000    300.41597   -281.36675   -363.75189     36.85716    24.281201 
 9650000    296.83493    883.18608   -1023.7502    103.73149    24.276143 
 9660000     299.4435    439.31064    697.68377   -70.692808    24.280113 
 9670000    300.94962    378.81083   -23.846921    2.4162893    24.275145 
 9680000     295.5628    45.691324     78.62344     -7.96652    24.276569 
 9690000    299.31236    223.80262    466.23165   -47.240922    24.276698 
 9700000     297.1165    167.69318   -365.20121    37.004012     24.27691 
 9710000    299.75884   -148.11467    34.239993   -3.4693673    24.261381 
 9720000    294.69678   -661.36557   -529.69359    53.671203    24.261268 
 9730000    299.00888   -179.36411     759.0812   -76.913902    24.263154 
 9740000    298.43104   -687.61661    103.93183   -10.530892    24.257309 
[...]
47570000    294.91091    214.19261   -139.91813    14.177205    25.547003 
47580000    301.53145     505.2785    21.200823   -2.1481734    25.547518 
47590000    297.94578   -2.9913838    441.09312   -44.693761    25.548626 
47600000    298.72206    1220.4598    383.90173   -38.898843    25.549526 
47610000    300.22749   -160.46541   -359.72937    36.449578    25.549357 
47620000     298.1679   -147.88481   -91.980634    9.3199378    25.549313 
47630000    299.37803    1755.1594    239.94004   -24.311924    25.549587 
47640000     295.4484    680.24104   -463.21948    46.935714    25.550318 
47650000    297.01818    62.313506   -697.15497    70.639227    25.552365 
47660000    294.81265     436.3287    -713.6606    72.311661    25.552198 
47670000    297.27038    128.26695    220.23065   -22.314871    25.553595 
47680000    296.10944    843.74841   -1218.0058    123.41444    25.555538 
47690000    300.80368    1448.5699   -606.57276    61.460984    25.557683 
47700000    293.43726     721.1432   -153.60458    15.563984    25.560008 
47710000    297.66839    296.82553   -844.40959    85.559802    25.562229 
47720000    298.06098    403.99597   -718.33416    72.785208    25.563894 
47730000     291.6546   -19.003433    -651.4209    66.005223    25.565998 
47740000    295.06089    296.95871   -689.05991    69.818996    25.568625 
47750000    298.87599   -871.63991    508.28818     -51.5023    25.570143 
47760000    299.22154    202.31762    203.58125    -20.62787    25.570392 
47770000    296.43365   -171.39765   -1438.1519    145.72074    25.570858 
47780000    302.14307     897.2465     502.6945    -50.93552    25.571709 
47790000    296.50644    579.33283    367.80908   -37.268255     25.57079 
47800000    295.98282   -140.85193    631.22569   -63.958943     25.56971 
47810000     298.2415   -650.20825   -618.92064    62.712134    25.569355 
47820000    299.07895   -355.08735   -901.91804    91.386845    25.570302 
47830000    298.67992   -450.88831    15.530494   -1.5736273    25.570874 
47840000    298.52281    266.53797    297.90956   -30.185686    25.570893 
47850000    296.36908   -980.28174    243.87593   -24.710729    25.571365 
47860000    298.47349    351.62568   -777.53553    78.783788    25.571991 
47870000    298.40877   -153.01923   -490.00186    49.649439    25.572843 
47880000    297.80655    187.60927    -794.6503    80.517942    25.573185 
47890000    295.02399   -139.39688    -987.9221    100.10121    25.573057 
47900000     297.7272   -154.72231    661.26351   -67.002525    25.573278 
47910000    295.84818    613.07067   -228.47093    23.149817    25.575286 
47920000    298.98658    1092.3183   -1156.9824    117.23124    25.577702 
47930000    297.93876   -102.46035    335.50258   -33.994799    25.579532 
47940000    301.95912   -371.30479    381.48579   -38.654048    25.581582 
47950000     295.5209   -372.11502    -445.2814    45.118138     25.58301 
47960000    294.56101   -517.49968   -1263.2932    128.00318    25.584617 
47970000    297.52593    232.24083   -712.67638    72.211935    25.586598 
47980000    300.35089   -5.7438299     492.2401   -49.876228    25.587702 
47990000    300.95223    446.26687    133.11534   -13.487912    25.587507 
48000000    296.93385    -42.50469   -483.39152    48.979646    25.588006 
48010000    298.91849    566.96701   -358.02612    36.276997    25.590034 
48020000    297.36949   -264.32688   -787.67792    79.811465    25.592083 
48030000    298.03197    -1331.148   -1452.7459    147.19948    25.593386 
48040000    300.21795    43.131767    104.68523   -10.607231    25.596278 
48050000    296.54535    405.22438    -742.1812     75.20151    25.597969 
48060000    295.23663   -433.50246    198.18504   -20.081099    25.600717 
48070000     298.0438    1252.2953   -858.94192     87.03229    25.601417 
48080000    301.61778   -792.69161     171.0561    -17.33226    25.603473 
48090000     293.7386   -1358.4713   -796.37938    80.693141     25.60486 
48100000    296.86553   -439.52941    441.12324   -44.696812    25.607754 
48110000    296.16315    620.83529    172.51782   -17.480368    25.609941 
48120000    295.47708    124.72925   -642.79992    65.131702    25.613406 
48130000    295.69681    305.70736    -822.0188    83.291054    25.615905 
48140000    297.04728    333.58913   -329.86024    33.423089    25.616685 
48150000    301.18191    167.32799   -312.37172    31.651064     25.61811 
48160000    298.16895   -1058.3149    1065.0232   -107.91347    25.618913 
48170000    299.06515   -150.55326   -723.53757    73.312444    25.620219 
48180000    297.68303   -197.02596   -406.99418    41.238686    25.621818 
48190000    294.84406   -478.92981   -782.03219    79.239411    25.622434 
48200000    299.69646      316.476   -340.46738    34.497857    25.624194 
48210000    298.55936   -744.32005   -246.38017    24.964471     25.62576 
48220000    293.99475   -126.16622      -309.11    31.320571    25.627007 
48230000    295.79291    326.51571   -900.05005    91.197571    25.627466 
48240000    295.87782   -83.401702   -477.48717    48.381387    25.627827 
48250000    295.99767    450.20937   -491.46028    49.797213    25.628153 
48260000    294.95619   -461.41931   -279.23581    28.293569    25.628868 
48270000    298.40067    974.38335    -53.15924      5.38636    25.629034 
48280000    298.66413    115.32167   -481.26562    48.764239    25.629148 
48290000    296.03167    229.84016   -544.17638    55.138671    25.628571 
48300000    296.43649    23.165024   -117.40135    11.895691    25.628603 
48310000    297.67047    536.65075   -807.84309    81.854701    25.628887 
48320000    300.67149    604.96888   -612.15407    62.026511    25.629523 
48330000    298.06128   -62.462886   -565.88736    57.338537    25.629085 
48340000    299.99158    704.59752   -354.09997    35.879179    25.628641 
48350000    296.42387    1423.4799    540.51001   -54.767176    25.628793 
48360000    301.28126    164.62958   -12.342496    1.2506034     25.62921 
48370000    295.50442    263.07176    355.42742   -36.013683    25.629473 
48380000    299.37753    494.71565   -369.84235    37.474276    25.630794 
48390000    298.19055    583.17483   -383.15479    38.823159    25.631592 
48400000    297.05867   -181.18857   -638.77524    64.723901    25.632697 
48410000    299.67008    937.17111   -77.921361    7.8953819    25.632106 
48420000    297.80357    239.03941   -622.27054    63.051562    25.631334 
48430000    297.83071    509.32948   -805.31425    81.598467     25.62972 
48440000     296.2562    1130.1823   -268.66647     27.22263    25.628543 
48450000    301.27003   -143.82275    -862.5539    87.398274     25.62673 
48460000    300.42335    303.30472   -346.05221     35.06374    25.626891 
48470000    294.79655    518.34097   -694.34517    70.354524    25.627062 
48480000    298.41268    612.72391   -296.59272    30.052257    25.627284 
48490000     301.5015    -485.4346   -1295.8013    131.29707     25.62794 
48500000    300.82172     349.1755    132.33526    -13.40887    25.627851 
48510000    296.96368    754.18196   -591.81203    59.965354    25.627345 
48520000    297.31959   -414.22725   -603.26524     61.12585    25.628522 
48530000    300.32979    618.90304   -251.92926    25.526732    25.629231 
48540000    299.09475    712.51709   -264.69651    26.820374    25.630113 
48550000    294.67473   -270.50317   -96.870911     9.815445    25.630791 
48560000    298.42678   -742.94557   -293.07655    29.695982    25.632057 
48570000    297.90452    239.31575   -539.34512    54.649145    25.632301 
48580000    300.03242    526.58534   -550.41845    55.771149    25.633248 
48590000    294.46913   -529.96155   -105.08631     10.64787    25.635196 
48600000    298.13413    426.20261    1226.0515   -124.22967    25.636646 
48610000    295.40229    155.66698    -333.5138    33.793286    25.638588 
48620000    293.42194   -90.768763   -678.04608    68.703019    25.640957 
48630000    294.83463    354.93234     -1542.02    156.24518     25.64368 
48640000    298.58589    262.10077    142.16356   -14.404722    25.645916 
48650000    295.29779     461.3066   -4.0784889   0.41325289    25.648055 
48660000    298.10279   -844.32983   -637.31842    64.576289    25.650201 
48670000     293.6089    1219.7512    -420.1992    42.576684    25.651386 
48680000    293.30145   -225.32453   -297.41549    30.135624    25.653766 
48690000    296.60686    -56.55882   -944.64158    95.715808    25.654509 
48700000    299.86751    93.026778   -657.74586    66.646099    25.656018 
48710000    298.63174   -328.93943   -160.14125    16.226313    25.657168 
48720000     299.2722   -1451.4617    22.001918   -2.2293444     25.65815 
48730000    298.85411    969.98591   -266.94015     27.04771    25.659323 
48740000     300.9329   -300.89766   -246.09471    24.935547    25.660216 
48750000    297.56327    714.70541   -818.25227    82.909411    25.661915 
48760000    294.94066     431.3668    -87.15463    8.8309429    25.663407 
48770000    294.13757   -965.77179   -650.76339      65.9386    25.665393 
48780000    298.22794    1399.1653   -1209.0383     122.5058    25.667949 
48790000    300.25896   -497.48976   -854.38518    86.570578    25.672079 
48800000    295.84485   -1231.3101    708.62974   -71.801908    25.674312 
48810000    299.39059    16.671037   -90.373694    9.1571146    25.674465 
48820000    298.85486    741.54268    -412.4228     41.78874    25.673938 
48830000    298.20363   -84.319118   -513.56796    52.037274    25.672968 
48840000    302.57358   -275.28505   -552.77938    56.010371    25.672437 
48850000    298.19643     771.1392    9.4233955  -0.95482554    25.673293 
48860000    299.41443   -491.56299   -407.39523    41.279322    25.674597 
48870000    299.92239   -987.73323   -218.65105    22.154817    25.674814 
48880000    297.85519    85.730337   -517.91294    52.477529    25.676262 
48890000    299.20501    573.74188   -393.07701    39.828528    25.677532 
48900000    297.12126    170.13029   -64.326814    6.5179145    25.679075 
48910000    297.12578   -235.99972   -412.68391    41.815198    25.681727 
48920000    298.56297   -505.11261    812.82232   -82.359222    25.683492 
48930000    297.85053    414.10454   -1219.1382    123.52917    25.684686 
48940000    298.31171   -388.31406   -476.96601    48.328581    25.686298 
48950000    298.03835    1379.7596   -1215.2235    123.13252    25.686316 
48960000    291.11343    455.63503   -295.23971    29.915163    25.687201 
48970000    297.77173   -967.13156   -902.68032    91.464083     25.68839 
48980000    295.05595    340.92571    489.14463    -49.56258    25.690414 
48990000    297.28204   -133.58931   -67.453086     6.834684    25.694002 
49000000    300.85316   -435.80204   -593.89391      60.1763    25.695506 
49010000     294.7885    803.55561   -277.18732    28.086005    25.698606 
49020000    295.81226    270.98899    75.484772   -7.6484945    25.700868 
49030000    299.18944   -717.61006   -969.23781    98.208021    25.702792 
49040000    295.32731     129.6565    109.75901   -11.121332    25.705401 
49050000    296.90155   -624.66195   -348.09825    35.271055    25.707541 
49060000    299.36126    251.40564    68.506732   -6.9414446      25.7094 
49070000    301.35613    386.23619   -621.96156    63.020255    25.709905 
49080000    298.48143   -449.27647    69.731704   -7.0655649    25.710395 
49090000    298.45689    143.01523     -344.173    34.873329    25.711273 
49100000    302.39873    92.178905    325.48032   -32.979293    25.711845 
49110000    297.53062    300.45549   -73.860202     7.483885    25.711644 
49120000    301.01494    532.55051   -496.25042    50.282574    25.712045 
49130000    296.32093   -712.28284   -616.24069    62.440588    25.712648 
49140000    298.86251   -276.50795    -661.8459    67.061536    25.714383 
49150000     296.8412   -152.86791   -938.08015    95.050972    25.715304 
49160000    294.05284    44.402567    471.08825   -47.733017    25.715799 
49170000    300.25932    56.427358   -561.01732     56.84508    25.718247 
49180000    300.02492    553.71003   -286.53989    29.033655    25.719765 
49190000    296.64232   -491.79668   -133.84528    13.561873    25.721289 
49200000    298.13394   -178.27936   -82.899784    8.3998206    25.721777 
49210000    297.79535    34.115123   -396.06923    40.131714    25.722196 
49220000    296.24915   -127.83342   -87.162284    8.8317185    25.722059 
49230000    298.19926   -203.05603    341.79259   -34.632134    25.722837 
49240000    298.76545   -176.80667    165.13264   -16.732065    25.723433 
49250000    296.24588   -358.99925    250.31171   -25.362834    25.725382 
49260000    299.00699   -806.74931   -827.72085    83.868815    25.727142 
49270000    297.23978    190.85512   -193.57857    19.614349    25.728581 
49280000    295.45634    1334.3042    121.97292   -12.358906    25.728372 
49290000    298.63508   -57.607526   -757.27277    76.730664    25.728316 
49300000    295.54759    855.89631   -639.81657    64.829414    25.729722 
49310000    299.35158   -857.56992     381.0358   -38.608452    25.731347 
49320000    297.02599    179.80013   -499.73199    50.635344    25.732919 
49330000    297.27033    240.03946   -764.06777    77.419167     25.73357 
49340000    294.40212   -89.581504    642.42937   -65.094156    25.733357 
49350000    300.45642    131.75524   -558.27171    56.566881    25.733717 
49360000    300.65061     37.96622    753.53619   -76.352054    25.733681 
49370000    302.75092     1016.294   -1015.9143    102.93751    25.733535 
49380000     298.3368    674.90106   -160.87574    16.300734    25.735338 
49390000    293.48211    34.489716   -978.39436    99.135809    25.736382 
49400000     297.4167    54.990942     374.5727   -37.953579    25.736217 
49410000    297.31361   -345.83118   -1597.9964    161.91699    25.737022 
49420000    295.26503    685.31305    21.001818   -2.1280092     25.73789 
49430000    301.21031    92.412613   -594.37777    60.225328    25.739521 
49440000    297.10905   -514.51605   -158.31535    16.041303    25.739958 
49450000    299.80878    110.02516     101.7906   -10.313933    25.740943 
49460000    296.62414   -246.66432   -474.60983    48.089841    25.743032 
49470000    298.11423   -242.32263    28.063814    -2.843566    25.743646 
49480000     301.9245    96.100817    -462.4309    46.855811     25.74475 
49490000     297.1054    189.49907   -702.09339    71.139612    25.745509 
49500000    299.21505   -462.62898   -30.660439     3.106669    25.746274 
49510000    294.57566    548.24079    174.87343    -17.71905    25.748706 
49520000    297.80105    190.47619   -922.67772     93.49032    25.748264 
49530000    295.59675    409.12869   -225.05993    22.804198    25.749285 
49540000    297.87008    9.0537065   -304.06146    30.809027    25.750936 
49550000    295.98021   -172.85041     346.7308   -35.132498    25.751491 
49560000    300.30672    162.59848    3.9121191  -0.39639546    25.754365 
49570000    300.91716    84.008152   -44.938586    4.5534022    25.755336 
49580000    299.24625   -79.262427    -54.34414      5.50642    25.756469 
49590000    298.75853    24.346622   -399.22055    40.451023    25.757673 
49600000    299.40874    239.28732   -33.477798    3.3921378    25.758231 
49610000    292.19173   -191.29582       -845.4    85.660155    25.759934 
49620000    302.45593   -788.31255   -7.3137501   0.74106572    25.759777 
49630000    295.49048     241.2666   -460.25416    46.635253    25.761631 
49640000     301.3251    375.75079   -446.10996    45.202092    25.763997 
49650000    296.95548   -220.18045   -874.91785    88.651051    25.764418 
49660000    300.73492   -951.22532    336.30635   -34.076241    25.764201 
49670000     294.3942    547.31708   -277.25604    28.092968    25.763874 
49680000    299.13177    126.16844    -855.8251    86.716478    25.764352 
49690000    301.47631   -47.742788   -1077.0233    109.12939    25.763422 
49700000    295.03015     935.8355    -1029.469    104.31095     25.76389 
49710000    298.96959    716.74654    453.53368     -45.9543     25.76365 
49720000    301.96471    151.35514    389.23027   -39.438758    25.764139 
49730000    301.01742    703.67364   -990.67929    100.38058    25.765316 
49740000    295.70454   -311.19838   -926.55022    93.882701    25.766567 
49750000    298.96535   -707.05685    345.37724   -34.995349    25.767031 
49760000    300.19552    665.74754    259.56319    -26.30024    25.767451 
49770000    296.06723   -207.25531    -922.9763    93.520574    25.767132 
49780000    297.22876    560.72516   -332.22593    33.662793     25.76855 
49790000    298.60045    210.47858   -767.37734    77.754509    25.769657 
49800000    300.42151     221.4858   -113.95077    11.546062    25.770262 
49810000    298.34943   -245.86753   -785.94224    79.635597    25.770254 
49820000    301.04435    515.75937     182.6378   -18.505775    25.771038 
49830000     298.3358   -15.038602   -517.52981    52.438708    25.772333 
49840000    297.67737   -376.20038   -491.81206    49.832857    25.771262 
49850000    301.86452    391.28273   -121.06978    12.267395    25.769787 
49860000    294.12421    387.08381   -62.529471    6.3357987    25.770181 
49870000    293.74488   -110.78942   -1333.3193    135.09857    25.769261 
49880000    295.32086   -145.81905    -25.06983    2.5402005    25.768326 
49890000    295.85467    1093.6172   -300.92397    30.491122    25.766028 
49900000    293.85302   -433.67128   -878.41069    89.004963    25.764983 
49910000    296.37724   -163.97942    177.81564   -18.017169    25.763232 
49920000    295.50661    353.46313    43.556161    -4.413328     25.76248 
49930000    297.80594   -307.60584    637.95368   -64.640656    25.762224 
49940000     297.5981    176.20205   -194.00894    19.657955    25.762781 
49950000    303.25834    34.958546   -258.52707    26.195255    25.762653 
49960000    295.89893    59.691108   -700.88017    71.016684    25.762776 
49970000    297.67525    -254.7987   -427.07537    43.273412    25.763671 
49980000    300.53388   -253.93578   -341.84933    34.637884    25.764158 
49990000    294.41236   -474.02426   -537.69185    54.481627    25.763901 
50000000    298.53437    923.94084    92.427848   -9.3652517    25.762854 
Loop time of 294028 on 36 procs for 50000000 steps with 11125 atoms

Performance: 7.346 ns/day, 3.267 hours/ns, 170.052 timesteps/s
96.3% CPU use with 36 MPI tasks x 1 OpenMP threads

MPI task timing breakdown:
Section |  min time  |  avg time  |  max time  |%varavg| %total
---------------------------------------------------------------
Pair    | 1.9817e+05 | 2.0231e+05 | 2.0852e+05 | 597.2 | 68.80
Bond    | 9680.1     | 9769.6     | 10147      | 123.4 |  3.32
Kspace  | 37230      | 43280      | 47524      |1277.9 | 14.72
Neigh   | 8966.1     | 8976.1     | 8983.7     |   4.4 |  3.05
Comm    | 21129      | 21349      | 21598      |  90.0 |  7.26
Output  | 2.4877     | 249.05     | 256.11     | 264.1 |  0.08
Modify  | 6886.3     | 7218.7     | 7672.3     | 274.4 |  2.46
Other   |            | 880.5      |            |       |  0.30

Nlocal:    309.028 ave 339 max 286 min
Histogram: 2 5 5 6 2 5 8 0 2 1
Nghost:    7438.67 ave 7520 max 7369 min
Histogram: 2 4 6 4 3 7 2 3 4 1
Neighs:    177467 ave 193993 max 159910 min
Histogram: 3 1 3 7 5 4 2 6 2 3

Total # of neighbors = 6388804
Ave neighs/atom = 574.275
Ave special neighs/atom = 10.7416
Neighbor list builds = 862946
Dangerous builds = 0

write_restart restart.pec6
PPPM initialization ...
  using 12-bit tables for long-range coulomb (src/kspace.cpp:319)
  G vector (1/distance) = 0.196002
  grid = 15 15 15
  stencil order = 5
  estimated absolute RMS force accuracy = 0.0198665
  estimated relative force accuracy = 5.98274e-05
  using double precision FFTs
  3d grid and FFT values/proc = 1000 135
No /omp style for force computation currently active
Total wall time: 81:40:28
