#Lammps data file. Generated with GRO2LAM converter.

 89 atoms
 88 bonds
 166 angles
 224 dihedrals
 0 impropers

 821 atom types
 299 bond types
 929 angle types
 1142 dihedral types
 0 improper types


 0.0100 49.0686 xlo xhi
 0.0100 49.0686 ylo yhi
 0.0000 49.0586 zlo zhi

 Masses

 1 12.01100 # opls_001
 2 15.99940 # opls_002
 3 14.00670 # opls_003
 4 1.00800 # opls_004
 5 14.02700 # opls_005
 6 13.01900 # opls_006
 7 15.03500 # opls_007
 8 13.01900 # opls_008
 9 14.02700 # opls_009
 10 15.03500 # opls_010
 11 12.01100 # opls_011
 12 14.00670 # opls_012
 13 1.00800 # opls_013
 14 13.01900 # opls_014
 15 14.02700 # opls_015
 16 14.02700 # opls_016
 17 12.01100 # opls_017
 18 15.99940 # opls_018
 19 14.02700 # opls_019
 20 14.00670 # opls_020
 21 1.00800 # opls_021
 22 14.02700 # opls_022
 23 15.99940 # opls_023
 24 1.00800 # opls_024
 25 13.01900 # opls_025
 26 12.01100 # opls_026
 27 14.02700 # opls_027
 28 14.02700 # opls_028
 29 13.01900 # opls_029
 30 13.01900 # opls_030
 31 14.02700 # opls_031
 32 32.06000 # opls_032
 33 1.00800 # opls_033
 34 14.02700 # opls_034
 35 32.06000 # opls_035
 36 15.03500 # opls_036
 37 14.02700 # opls_037
 38 32.06000 # opls_038
 39 15.03500 # opls_039
 40 14.00670 # opls_040
 41 1.00800 # opls_041
 42 14.00670 # opls_042
 43 12.01100 # opls_043
 44 12.01100 # opls_044
 45 12.01100 # opls_045
 46 14.00670 # opls_046
 47 1.00800 # opls_047
 48 12.01100 # opls_048
 49 12.01100 # opls_049
 50 12.01100 # opls_050
 51 14.00670 # opls_051
 52 1.00800 # opls_052
 53 12.01100 # opls_053
 54 14.00670 # opls_054
 55 1.00800 # opls_055
 56 14.02700 # opls_056
 57 14.02700 # opls_057
 58 12.01100 # opls_058
 59 15.99940 # opls_059
 60 13.01900 # opls_060
 61 14.02700 # opls_061
 62 15.99940 # opls_062
 63 15.03500 # opls_063
 64 12.01100 # opls_064
 65 15.03500 # opls_065
 66 16.04300 # opls_066
 67 15.03500 # opls_067
 68 15.03500 # opls_068
 69 15.03500 # opls_069
 70 15.03500 # opls_070
 71 14.02700 # opls_071
 72 14.02700 # opls_072
 73 13.01900 # opls_073
 74 13.01900 # opls_074
 75 13.01900 # opls_075
 76 12.01100 # opls_076
 77 12.01100 # opls_077
 78 15.99940 # opls_078
 79 1.00800 # opls_079
 80 15.03500 # opls_080
 81 14.02700 # opls_081
 82 32.06000 # opls_082
 83 32.06000 # opls_083
 84 32.06000 # opls_084
 85 32.06000 # opls_085
 86 1.00800 # opls_086
 87 1.00800 # opls_087
 88 15.03500 # opls_088
 89 14.02700 # opls_089
 90 15.03500 # opls_090
 91 14.02700 # opls_091
 92 15.03500 # opls_092
 93 14.02700 # opls_093
 94 14.00670 # opls_094
 95 12.01100 # opls_095
 96 15.03500 # opls_096
 97 39.94800 # opls_097
 98 83.79800 # opls_098
 99 131.29300 # opls_099
 100 14.00670 # opls_101
 101 14.00670 # opls_102
 102 14.00670 # opls_103
 103 1.00800 # opls_104
 104 1.00800 # opls_105
 105 15.03500 # opls_106
 106 15.03500 # opls_107
 107 15.99940 # opls_108
 108 15.03500 # opls_109
 109 14.02700 # opls_110
 110 9.95140 # opls_111
 111 4.03200 # opls_112
 112 9.95140 # opls_113
 113 4.03200 # opls_114
 114 0.01008 # opls_115
 115 9.95140 # opls_116
 116 4.03200 # opls_117
 117 15.99940 # opls_111
 118 1.00800 # opls_112
 119 15.99940 # opls_113
 120 1.00800 # opls_114
 121 0.01008 # opls_115
 122 15.99940 # opls_116
 123 1.00800 # opls_117
 124 15.99940 # opls_118
 125 15.99940 # opls_118e
 126 1.00800 # opls_119
 127 0.01008 # opls_120
 128 12.01100 # opls_122
 129 35.45300 # opls_123
 130 32.06000 # opls_124
 131 15.99940 # opls_125
 132 15.03500 # opls_126
 133 14.00670 # opls_127
 134 1.00800 # opls_128
 135 20.17970 # opls_129
 136 4.00260 # opls_130
 137 12.01100 # opls_131
 138 15.03500 # opls_132
 139 12.01100 # opls_135
 140 12.01100 # opls_136
 141 12.01100 # opls_137
 142 12.01100 # opls_138
 143 12.01100 # opls_139
 144 1.00800 # opls_140
 145 12.01100 # opls_141
 146 12.01100 # opls_142
 147 12.01100 # opls_143
 148 1.00800 # opls_144
 149 12.01100 # opls_145
 150 12.01100 # opls_145B
 151 1.00800 # opls_146
 152 12.01100 # opls_147
 153 12.01100 # opls_148
 154 12.01100 # opls_149
 155 12.01100 # opls_150
 156 35.45300 # opls_151
 157 12.01100 # opls_152
 158 1.00800 # opls_153
 159 15.99940 # opls_154
 160 1.00800 # opls_155
 161 1.00800 # opls_156
 162 12.01100 # opls_157
 163 12.01100 # opls_158
 164 12.01100 # opls_159
 165 12.01100 # opls_160
 166 12.01100 # opls_161
 167 15.99940 # opls_162
 168 1.00800 # opls_163
 169 18.99840 # opls_164
 170 1.00800 # opls_165
 171 12.01100 # opls_166
 172 15.99940 # opls_167
 173 1.00800 # opls_168
 174 15.99940 # opls_169
 175 1.00800 # opls_170
 176 15.99940 # opls_171
 177 1.00800 # opls_172
 178 12.01100 # opls_173
 179 12.01100 # opls_174
 180 12.01100 # opls_175
 181 1.00800 # opls_176
 182 12.01100 # opls_178
 183 15.99940 # opls_179
 184 15.99940 # opls_180
 185 12.01100 # opls_181
 186 12.01100 # opls_182
 187 12.01100 # opls_183
 188 12.01100 # opls_184
 189 1.00800 # opls_185
 190 15.99940 # opls_186
 191 15.99940 # opls_187
 192 1.00800 # opls_188
 193 12.01100 # opls_189
 194 1.00800 # opls_190
 195 12.01100 # opls_191
 196 1.00800 # opls_192
 197 12.01100 # opls_193
 198 1.00800 # opls_194
 199 12.01100 # opls_195
 200 1.00800 # opls_196
 201 12.01100 # opls_197
 202 12.01100 # opls_198
 203 12.01100 # opls_199
 204 32.06000 # opls_200
 205 32.06000 # opls_201
 206 32.06000 # opls_202
 207 32.06000 # opls_203
 208 1.00800 # opls_204
 209 1.00800 # opls_205
 210 12.01100 # opls_206
 211 12.01100 # opls_207
 212 12.01100 # opls_208
 213 12.01100 # opls_209
 214 12.01100 # opls_210
 215 12.01100 # opls_211
 216 12.01100 # opls_212
 217 12.01100 # opls_213
 218 12.01100 # opls_214
 219 12.01100 # opls_215
 220 12.01100 # opls_216
 221 12.01100 # opls_217
 222 12.01100 # opls_218
 223 12.01100 # opls_219
 224 12.01100 # opls_220
 225 12.01100 # opls_221
 226 32.06000 # opls_222
 227 12.01100 # opls_223
 228 12.01100 # opls_223B
 229 12.01100 # opls_224
 230 12.01100 # opls_224B
 231 12.01100 # opls_225
 232 12.01100 # opls_225B
 233 35.45300 # opls_226
 234 12.01100 # opls_227
 235 12.01100 # opls_228
 236 12.01100 # opls_229
 237 12.01100 # opls_230
 238 12.01100 # opls_231
 239 12.01100 # opls_232
 240 12.01100 # opls_233
 241 12.01100 # opls_234
 242 12.01100 # opls_235
 243 15.99940 # opls_236
 244 14.00670 # opls_237
 245 14.00670 # opls_238
 246 14.00670 # opls_239
 247 1.00800 # opls_240
 248 1.00800 # opls_241
 249 12.01100 # opls_242
 250 12.01100 # opls_243
 251 12.01100 # opls_244
 252 12.01100 # opls_245
 253 12.01100 # opls_246
 254 12.01100 # opls_247
 255 15.99940 # opls_248
 256 14.00670 # opls_249
 257 1.00800 # opls_250
 258 14.00670 # opls_251
 259 12.01100 # opls_252
 260 15.99940 # opls_253
 261 1.00800 # opls_254
 262 1.00800 # opls_255
 263 12.01100 # opls_256
 264 12.01100 # opls_257
 265 12.01100 # opls_258
 266 12.01100 # opls_259
 267 12.01100 # opls_260
 268 12.01100 # opls_261
 269 14.00670 # opls_262
 270 12.01100 # opls_263
 271 35.45300 # opls_264
 272 14.00670 # opls_265
 273 12.01100 # opls_266
 274 12.01100 # opls_267
 275 15.99940 # opls_268
 276 15.99940 # opls_269
 277 1.00800 # opls_270
 278 12.01100 # opls_271
 279 15.99940 # opls_272
 280 12.01100 # opls_273
 281 12.01100 # opls_274
 282 12.01100 # opls_275
 283 12.01100 # opls_276
 284 12.01100 # opls_277
 285 15.99940 # opls_278
 286 1.00800 # opls_279
 287 12.01100 # opls_280
 288 15.99940 # opls_281
 289 1.00800 # opls_282
 290 12.01100 # opls_283
 291 12.01100 # opls_284
 292 12.01100 # opls_285
 293 14.00670 # opls_286
 294 14.00670 # opls_287
 295 14.00670 # opls_288
 296 1.00800 # opls_289
 297 1.00800 # opls_290
 298 12.01100 # opls_291
 299 12.01100 # opls_292
 300 12.01100 # opls_292B
 301 12.01100 # opls_293
 302 12.01100 # opls_293B
 303 12.01100 # opls_294
 304 12.01100 # opls_295
 305 12.01100 # opls_296
 306 12.01100 # opls_297
 307 12.01100 # opls_298
 308 12.01100 # opls_299
 309 14.00670 # opls_300
 310 1.00800 # opls_301
 311 12.01100 # opls_302
 312 14.00670 # opls_303
 313 1.00800 # opls_304
 314 12.01100 # opls_305
 315 12.01100 # opls_306
 316 12.01100 # opls_307
 317 12.01100 # opls_308
 318 14.00670 # opls_309
 319 1.00800 # opls_310
 320 14.00670 # opls_311
 321 12.01100 # opls_312
 322 14.00670 # opls_313
 323 1.00800 # opls_314
 324 12.01100 # opls_315
 325 1.00800 # opls_316
 326 12.01100 # opls_317
 327 1.00800 # opls_318
 328 14.00670 # opls_319
 329 14.00670 # opls_319B
 330 12.01100 # opls_320
 331 14.00670 # opls_321
 332 12.01100 # opls_322
 333 12.01100 # opls_323
 334 12.01100 # opls_324
 335 1.00800 # opls_325
 336 15.99940 # opls_326
 337 1.00800 # opls_327
 338 15.99940 # opls_328
 339 1.00800 # opls_329
 340 1.00800 # opls_330
 341 12.01100 # opls_331
 342 1.00800 # opls_332
 343 14.00670 # opls_333
 344 14.00670 # opls_333B
 345 12.01100 # opls_334
 346 14.00670 # opls_335
 347 12.01100 # opls_336
 348 12.01100 # opls_337
 349 12.01100 # opls_338
 350 1.00800 # opls_339
 351 15.99940 # opls_340
 352 14.00670 # opls_341
 353 1.00800 # opls_342
 354 1.00800 # opls_343
 355 1.00800 # opls_344
 356 1.00800 # opls_345
 357 14.00670 # opls_346
 358 12.01100 # opls_347
 359 14.00670 # opls_348
 360 12.01100 # opls_349
 361 12.01100 # opls_350
 362 12.01100 # opls_351
 363 14.00670 # opls_352
 364 12.01100 # opls_353
 365 14.00670 # opls_354
 366 14.00670 # opls_354B
 367 1.00800 # opls_355
 368 14.00670 # opls_356
 369 1.00800 # opls_357
 370 1.00800 # opls_358
 371 1.00800 # opls_359
 372 1.00800 # opls_360
 373 14.00670 # opls_361
 374 12.01100 # opls_362
 375 14.00670 # opls_363
 376 12.01100 # opls_364
 377 12.01100 # opls_365
 378 12.01100 # opls_366
 379 1.00800 # opls_367
 380 14.00670 # opls_368
 381 1.00800 # opls_369
 382 15.99940 # opls_370
 383 12.01100 # opls_371
 384 1.00800 # opls_372
 385 12.01100 # opls_373
 386 1.00800 # opls_374
 387 12.01100 # opls_375
 388 1.00800 # opls_376
 389 14.00670 # opls_377
 390 14.00670 # opls_377B
 391 12.01100 # opls_378
 392 14.00670 # opls_379
 393 12.01100 # opls_380
 394 12.01100 # opls_381
 395 12.01100 # opls_382
 396 1.00800 # opls_383
 397 15.99940 # opls_384
 398 1.00800 # opls_385
 399 14.00670 # opls_386
 400 1.00800 # opls_387
 401 1.00800 # opls_388
 402 1.00800 # opls_389
 403 1.00800 # opls_390
 404 12.01100 # opls_391
 405 1.00800 # opls_392
 406 30.97376 # opls_393
 407 15.99940 # opls_394
 408 15.99940 # opls_395
 409 12.01100 # opls_396
 410 18.99840 # opls_400
 411 35.45300 # opls_401
 412 79.90400 # opls_402
 413 126.90450 # opls_403
 414 6.94100 # opls_404
 415 22.98977 # opls_405
 416 6.94100 # opls_406
 417 22.98977 # opls_407
 418 39.09830 # opls_408
 419 85.46780 # opls_409
 420 132.90540 # opls_410
 421 24.30500 # opls_411
 422 40.08000 # opls_412
 423 87.62000 # opls_413
 424 137.33000 # opls_414
 425 12.01100 # opls_415
 426 1.00800 # opls_416
 427 32.06000 # opls_417
 428 12.01100 # opls_418
 429 1.00800 # opls_419
 430 15.99940 # opls_420
 431 12.01100 # opls_421
 432 1.00800 # opls_422
 433 12.01100 # opls_423
 434 14.00670 # opls_424
 435 12.01100 # opls_425
 436 1.00800 # opls_426
 437 14.00670 # opls_427
 438 1.00800 # opls_428
 439 12.01100 # opls_429
 440 1.00800 # opls_430
 441 12.01100 # opls_431
 442 1.00800 # opls_432
 443 0.01008 # opls_433
 444 15.99940 # opls_434
 445 1.00800 # opls_435
 446 0.01008 # opls_436
 447 15.99940 # opls_437
 448 30.97376 # opls_440
 449 15.99940 # opls_441
 450 15.99940 # opls_442
 451 12.01100 # opls_443
 452 1.00800 # opls_444
 453 30.97376 # opls_445
 454 15.99940 # opls_446
 455 15.99940 # opls_447
 456 12.01100 # opls_448
 457 1.00800 # opls_449
 458 30.97376 # opls_450
 459 15.99940 # opls_451
 460 15.99940 # opls_452
 461 12.01100 # opls_453
 462 1.00800 # opls_454
 463 12.01100 # opls_455
 464 1.00800 # opls_456
 465 12.01100 # opls_457
 466 12.01100 # opls_458
 467 1.00800 # opls_459
 468 12.01100 # opls_460
 469 12.01100 # opls_461
 470 1.00800 # opls_462
 471 12.01100 # opls_463
 472 12.01100 # opls_465
 473 15.99940 # opls_466
 474 15.99940 # opls_467
 475 12.01100 # opls_468
 476 1.00800 # opls_469
 477 12.01100 # opls_470
 478 12.01100 # opls_471
 479 12.01100 # opls_472
 480 15.99940 # opls_473
 481 32.06000 # opls_474
 482 15.99940 # opls_475
 483 12.01100 # opls_476
 484 1.00800 # opls_477
 485 14.00670 # opls_478
 486 1.00800 # opls_479
 487 14.00670 # opls_480
 488 1.00800 # opls_481
 489 12.01100 # opls_482
 490 1.00800 # opls_483
 491 12.01100 # opls_484
 492 1.00800 # opls_485
 493 12.01100 # opls_486
 494 1.00800 # opls_487
 495 12.01100 # opls_488
 496 12.01100 # opls_490
 497 12.01100 # opls_491
 498 12.01100 # opls_492
 499 32.06000 # opls_493
 500 15.99940 # opls_494
 501 32.06000 # opls_496
 502 15.99940 # opls_497
 503 12.01100 # opls_498
 504 12.01100 # opls_499
 505 12.01100 # opls_500
 506 12.01100 # opls_501
 507 12.01100 # opls_502
 508 14.00670 # opls_503
 509 1.00800 # opls_504
 510 12.01100 # opls_505
 511 12.01100 # opls_506
 512 12.01100 # opls_507
 513 12.01100 # opls_508
 514 12.01100 # opls_509
 515 12.01100 # opls_510
 516 14.00670 # opls_511
 517 14.00670 # opls_512
 518 1.00800 # opls_513
 519 12.01100 # opls_514
 520 12.01100 # opls_515
 521 12.01100 # opls_516
 522 12.01100 # opls_517
 523 12.01100 # opls_518
 524 14.00670 # opls_520
 525 12.01100 # opls_521
 526 12.01100 # opls_522
 527 12.01100 # opls_523
 528 1.00800 # opls_524
 529 1.00800 # opls_525
 530 1.00800 # opls_526
 531 14.00670 # opls_527
 532 12.01100 # opls_528
 533 1.00800 # opls_529
 534 14.00670 # opls_530
 535 12.01100 # opls_531
 536 12.01100 # opls_532
 537 12.01100 # opls_533
 538 1.00800 # opls_534
 539 1.00800 # opls_535
 540 1.00800 # opls_536
 541 14.00670 # opls_537
 542 12.01100 # opls_538
 543 12.01100 # opls_539
 544 1.00800 # opls_540
 545 1.00800 # opls_541
 546 14.00670 # opls_542
 547 12.01100 # opls_543
 548 12.01100 # opls_544
 549 1.00800 # opls_545
 550 1.00800 # opls_546
 551 1.00800 # opls_547
 552 14.00670 # opls_548
 553 14.00670 # opls_549
 554 12.01100 # opls_550
 555 12.01100 # opls_551
 556 12.01100 # opls_552
 557 1.00800 # opls_553
 558 1.00800 # opls_554
 559 1.00800 # opls_555
 560 1.00800 # opls_556
 561 14.00670 # opls_557
 562 12.01100 # opls_558
 563 14.00670 # opls_559
 564 12.01100 # opls_560
 565 12.01100 # opls_561
 566 1.00800 # opls_562
 567 1.00800 # opls_563
 568 1.00800 # opls_564
 569 1.00800 # opls_565
 570 15.99940 # opls_566
 571 12.01100 # opls_567
 572 12.01100 # opls_568
 573 1.00800 # opls_569
 574 1.00800 # opls_570
 575 15.99940 # opls_571
 576 12.01100 # opls_572
 577 14.00670 # opls_573
 578 12.01100 # opls_574
 579 12.01100 # opls_575
 580 1.00800 # opls_576
 581 1.00800 # opls_577
 582 1.00800 # opls_578
 583 15.99940 # opls_579
 584 14.00670 # opls_580
 585 12.01100 # opls_581
 586 12.01100 # opls_582
 587 12.01100 # opls_583
 588 1.00800 # opls_584
 589 1.00800 # opls_585
 590 1.00800 # opls_586
 591 14.00670 # opls_587
 592 12.01100 # opls_588
 593 12.01100 # opls_589
 594 12.01100 # opls_590
 595 12.01100 # opls_591
 596 12.01100 # opls_592
 597 12.01100 # opls_593
 598 12.01100 # opls_594
 599 12.01100 # opls_595
 600 1.00800 # opls_596
 601 1.00800 # opls_597
 602 1.00800 # opls_598
 603 1.00800 # opls_599
 604 1.00800 # opls_600
 605 1.00800 # opls_601
 606 1.00800 # opls_602
 607 14.00670 # opls_603
 608 12.01100 # opls_604
 609 12.01100 # opls_605
 610 12.01100 # opls_606
 611 12.01100 # opls_607
 612 12.01100 # opls_608
 613 12.01100 # opls_609
 614 12.01100 # opls_610
 615 12.01100 # opls_611
 616 12.01100 # opls_612
 617 1.00800 # opls_613
 618 1.00800 # opls_614
 619 1.00800 # opls_615
 620 1.00800 # opls_616
 621 1.00800 # opls_617
 622 1.00800 # opls_618
 623 1.00800 # opls_619
 624 14.00670 # opls_620
 625 12.01100 # opls_621
 626 14.00670 # opls_622
 627 12.01100 # opls_623
 628 12.01100 # opls_624
 629 12.01100 # opls_625
 630 14.00670 # opls_626
 631 12.01100 # opls_627
 632 14.00670 # opls_628
 633 1.00800 # opls_629
 634 1.00800 # opls_630
 635 1.00800 # opls_631
 636 1.00800 # opls_632
 637 32.06000 # opls_633
 638 12.01100 # opls_634
 639 14.00670 # opls_635
 640 12.01100 # opls_636
 641 12.01100 # opls_637
 642 1.00800 # opls_638
 643 1.00800 # opls_639
 644 1.00800 # opls_640
 645 14.00670 # opls_641
 646 12.01100 # opls_642
 647 1.00800 # opls_643
 648 12.01100 # opls_644
 649 12.01100 # opls_645
 650 14.00670 # opls_646
 651 12.01100 # opls_647
 652 12.01100 # opls_648
 653 12.01100 # opls_649
 654 12.01100 # opls_650
 655 12.01100 # opls_651
 656 12.01100 # opls_652
 657 1.00800 # opls_653
 658 1.00800 # opls_654
 659 1.00800 # opls_655
 660 1.00800 # opls_656
 661 12.01100 # opls_670
 662 12.01100 # opls_671
 663 12.01100 # opls_672
 664 12.01100 # opls_673
 665 12.01100 # opls_674
 666 12.01100 # opls_675
 667 12.01100 # opls_676
 668 12.01100 # opls_677
 669 12.01100 # opls_678
 670 12.01100 # opls_679
 671 12.01100 # opls_680
 672 12.01100 # opls_681
 673 227.0300 # opls_697
 674 232.0400 # opls_698
 675 243.0600 # opls_699
 676 12.01100 # opls_700
 677 12.01100 # opls_701
 678 1.00800 # opls_702
 679 138.9100 # opls_703
 680 144.2400 # opls_704
 681 151.9600 # opls_705
 682 157.2500 # opls_706
 683 173.0400 # opls_707
 684 12.01100 # opls_708
 685 35.45300 # opls_709
 686 1.00800 # opls_710
 687 12.01100 # opls_711
 688 12.01100 # opls_712
 689 12.01100 # opls_713
 690 12.01100 # opls_714
 691 1.00800 # opls_715
 692 12.01100 # opls_716
 693 1.00800 # opls_717
 694 12.01100 # opls_718
 695 18.99840 # opls_719
 696 12.01100 # opls_720
 697 18.99840 # opls_721
 698 79.90400 # opls_722
 699 12.01100 # opls_724
 700 12.01100 # opls_725
 701 18.99840 # opls_726
 702 12.01100 # opls_727
 703 18.99840 # opls_728
 704 12.01100 # opls_729
 705 79.90400 # opls_730
 706 12.01100 # opls_731
 707 126.90450 # opls_732
 708 12.01100 # opls_733
 709 32.06000 # opls_734
 710 12.01100 # opls_735
 711 12.01100 # opls_736
 712 12.01100 # opls_737
 713 12.01100 # opls_738
 714 12.01100 # opls_739
 715 1.00800 # opls_740
 716 1.00800 # opls_741
 717 12.01100 # opls_742
 718 14.00670 # opls_743
 719 1.00800 # opls_744
 720 1.00800 # opls_745
 721 1.00800 # opls_746
 722 12.01100 # opls_747
 723 12.01100 # opls_748
 724 14.00670 # opls_749
 725 14.00670 # opls_750
 726 14.00670 # opls_751
 727 12.01100 # opls_752
 728 14.00670 # opls_753
 729 12.01100 # opls_754
 730 12.01100 # opls_755
 731 12.01100 # opls_756
 732 12.01100 # opls_757
 733 12.01100 # opls_758
 734 1.00800 # opls_759
 735 14.00670 # opls_760
 736 15.99940 # opls_761
 737 12.01100 # opls_762
 738 1.00800 # opls_763
 739 12.01100 # opls_764
 740 12.01100 # opls_765
 741 12.01100 # opls_766
 742 14.00670 # opls_767
 743 12.01100 # opls_768
 744 15.99940 # opls_771
 745 12.01100 # opls_772
 746 15.99940 # opls_773
 747 12.01100 # opls_774
 748 12.01100 # opls_775
 749 12.01100 # opls_776
 750 1.00800 # opls_777
 751 1.00800 # opls_778
 752 1.00800 # opls_779
 753 30.97376 # opls_781
 754 12.01100 # opls_782
 755 12.01100 # opls_783
 756 1.00800 # opls_784
 757 30.97376 # opls_785
 758 18.99840 # opls_786
 759 14.00670 # opls_787
 760 15.99940 # opls_788
 761 15.99940 # opls_795
 762 1.00800 # opls_796
 763 0.01008 # opls_797
 764 14.00670 # opls_900
 765 14.00670 # opls_901
 766 14.00670 # opls_902
 767 12.01100 # opls_903
 768 12.01100 # opls_904
 769 12.01100 # opls_905
 770 12.01100 # opls_906
 771 12.01100 # opls_906B
 772 12.01100 # opls_907
 773 12.01100 # opls_908
 774 1.00800 # opls_909
 775 1.00800 # opls_910
 776 1.00800 # opls_911
 777 12.01100 # opls_912
 778 12.01100 # opls_912B
 779 12.01100 # opls_913
 780 12.01100 # opls_914
 781 12.01100 # opls_915
 782 12.01100 # opls_916
 783 12.01100 # opls_917
 784 12.01100 # opls_918
 785 12.01100 # opls_925
 786 1.00800 # opls_926
 787 12.01100 # opls_927
 788 12.01100 # opls_928
 789 12.01100 # opls_929
 790 1.00800 # opls_930
 791 12.01100 # opls_931
 792 14.00670 # opls_940
 793 1.00800 # opls_941
 794 12.01100 # opls_942
 795 12.01100 # opls_943
 796 12.01100 # opls_944
 797 12.01100 # opls_945
 798 1.00800 # opls_950
 799 12.01100 # opls_951
 800 12.01100 # opls_952
 801 14.00670 # opls_953
 802 15.99940 # opls_954
 803 1.00800 # opls_955
 804 18.99840 # opls_956
 805 12.01100 # opls_957
 806 1.00800 # opls_958
 807 12.01100 # opls_959
 808 12.01100 # opls_960
 809 12.01100 # opls_961
 810 12.01100 # opls_962
 811 12.01100 # opls_963
 812 12.01100 # opls_964
 813 18.99840 # opls_965
 814 0.01008 # MNH3
 815 0.01008 # MNH2
 816 0.01008 # MCH3A
 817 0.01008 # MCH3B
 818 0.01008 # MW
 819 63.54600 # Cu2+
 820 55.84700 # Fe2+
 821 28.08000 # SI

 Pair Coeffs #

 1 0.10495 3.75000
 2 0.20990 2.96000
 3 0.16992 3.25000
 4 0.00000 0.00000
 5 0.11794 3.80000
 6 0.07996 3.80000
 7 0.15992 3.91000
 8 0.07996 3.85000
 9 0.11794 3.90500
 10 0.17492 3.90500
 11 0.10995 3.75000
 12 0.16992 3.25000
 13 0.00000 0.00000
 14 0.07996 3.80000
 15 0.11794 3.80000
 16 0.11794 3.90500
 17 0.10495 3.75000
 18 0.20990 2.96000
 19 0.11794 3.90500
 20 0.16992 3.25000
 21 0.00000 0.00000
 22 0.11794 3.90500
 23 0.16992 3.07000
 24 0.00000 0.00000
 25 0.07996 3.85000
 26 0.10995 3.75000
 27 0.11794 3.80000
 28 0.11794 3.80000
 29 0.07996 3.80000
 30 0.07996 3.80000
 31 0.11794 3.90500
 32 0.24988 3.55000
 33 0.00000 0.00000
 34 0.11794 3.80000
 35 0.24988 3.55000
 36 0.16992 3.80000
 37 0.11794 3.80000
 38 0.24988 3.55000
 39 0.16992 3.80000
 40 0.16992 3.25000
 41 0.00000 0.00000
 42 0.16992 3.25000
 43 0.14493 3.75000
 44 0.14493 3.75000
 45 0.14493 3.75000
 46 0.16992 3.25000
 47 0.00000 0.00000
 48 0.14493 3.75000
 49 0.14493 3.75000
 50 0.14493 3.75000
 51 0.16992 3.25000
 52 0.00000 0.00000
 53 0.04998 2.25000
 54 0.16992 3.25000
 55 0.00000 0.00000
 56 0.11794 3.90500
 57 0.11794 3.90500
 58 0.10495 3.75000
 59 0.20990 2.96000
 60 0.07996 3.80000
 61 0.11794 3.80000
 62 0.16992 3.00000
 63 0.16992 3.80000
 64 0.04998 3.80000
 65 0.14493 3.96000
 66 0.29386 3.73000
 67 0.20690 3.77500
 68 0.17492 3.90500
 69 0.15992 3.91000
 70 0.14493 3.96000
 71 0.11794 3.90500
 72 0.13993 3.85000
 73 0.07996 3.85000
 74 0.11495 3.80000
 75 0.10995 3.75000
 76 0.04998 3.80000
 77 0.10495 3.75000
 78 0.16992 3.07000
 79 0.00000 0.00000
 80 0.20690 3.77500
 81 0.11794 3.90500
 82 0.24988 3.70000
 83 0.24988 3.55000
 84 0.24988 3.55000
 85 0.24988 3.55000
 86 0.00000 0.00000
 87 0.00000 0.00000
 88 0.20690 3.77500
 89 0.11794 3.90500
 90 0.16992 3.80000
 91 0.11794 3.80000
 92 0.16992 3.80000
 93 0.11794 3.80000
 94 0.16992 3.20000
 95 0.14993 3.65000
 96 0.20690 3.77500
 97 0.23379 3.40100
 98 0.43279 3.93500
 99 0.00000 0.00000
 100 0.16992 3.25000
 101 0.16992 3.25000
 102 0.16992 3.25000
 103 0.00000 0.00000
 104 0.00000 0.00000
 105 0.20690 3.77500
 106 0.14493 3.96000
 107 0.16992 3.00000
 108 0.16992 3.80000
 109 0.11794 3.80000
 110 0.15203 3.15061
 111 0.00000 0.00000
 112 0.15493 3.15365
 113 0.00000 0.00000
 114 0.00000 0.00000
 115 0.15533 3.16557
 116 0.00000 0.00000
 117 0.15203 3.15061
 118 0.00000 0.00000
 119 0.15493 3.15365
 120 0.00000 0.00000
 121 0.00000 0.00000
 122 0.15533 3.16557
 123 0.00000 0.00000
 124 0.15992 3.12000
 125 0.17791 3.09700
 126 0.00000 0.00000
 127 0.00000 0.00000
 128 0.04998 3.80000
 129 0.26587 3.47000
 130 0.39481 3.56000
 131 0.27987 2.93000
 132 0.15992 3.81000
 133 0.16992 3.42000
 134 0.00000 0.00000
 135 0.06897 2.78000
 136 0.01999 2.55600
 137 0.11495 3.80000
 138 0.16992 3.80000
 139 0.06597 3.50000
 140 0.06597 3.50000
 141 0.06597 3.50000
 142 0.06597 3.50000
 143 0.06597 3.50000
 144 0.02999 2.50000
 145 0.07596 3.55000
 146 0.07596 3.55000
 147 0.07596 3.55000
 148 0.02999 2.42000
 149 0.06997 3.55000
 150 0.06997 3.55000
 151 0.02999 2.42000
 152 0.06997 3.55000
 153 0.06597 3.50000
 154 0.06597 3.50000
 155 0.07596 3.55000
 156 0.29986 3.40000
 157 0.06597 3.50000
 158 0.02999 2.50000
 159 0.16992 3.12000
 160 0.00000 0.00000
 161 0.02999 2.50000
 162 0.06597 3.50000
 163 0.06597 3.50000
 164 0.06597 3.50000
 165 0.06597 3.50000
 166 0.06197 3.25000
 167 0.16992 3.07000
 168 0.00000 0.00000
 169 0.06097 2.94000
 170 0.02999 2.50000
 171 0.06997 3.55000
 172 0.16992 3.07000
 173 0.00000 0.00000
 174 0.16992 3.07000
 175 0.00000 0.00000
 176 0.16992 3.07000
 177 0.00000 0.00000
 178 0.06597 3.50000
 179 0.06597 3.50000
 180 0.06597 3.50000
 181 0.02999 2.50000
 182 0.07596 3.55000
 183 0.13993 2.90000
 184 0.13993 2.90000
 185 0.06597 3.50000
 186 0.06597 3.50000
 187 0.06597 3.50000
 188 0.06597 3.50000
 189 0.02999 2.50000
 190 0.13993 2.90000
 191 0.16992 3.07000
 192 0.00000 0.00000
 193 0.06597 3.50000
 194 0.02999 2.50000
 195 0.06597 3.50000
 196 0.02999 2.50000
 197 0.06597 3.50000
 198 0.02999 2.50000
 199 0.06597 3.50000
 200 0.02999 2.50000
 201 0.06597 3.50000
 202 0.06597 3.50000
 203 0.06997 3.55000
 204 0.42480 3.60000
 205 0.24988 3.70000
 206 0.35483 3.60000
 207 0.24988 3.55000
 208 0.00000 0.00000
 209 0.00000 0.00000
 210 0.06597 3.50000
 211 0.06597 3.50000
 212 0.06597 3.50000
 213 0.06597 3.50000
 214 0.06597 3.50000
 215 0.06597 3.50000
 216 0.06597 3.50000
 217 0.06597 3.50000
 218 0.06597 3.50000
 219 0.06597 3.50000
 220 0.06597 3.50000
 221 0.06597 3.50000
 222 0.06597 3.50000
 223 0.06597 3.50000
 224 0.06597 3.50000
 225 0.06997 3.55000
 226 0.24988 3.55000
 227 0.06597 3.50000
 228 0.06597 3.50000
 229 0.06597 3.50000
 230 0.06597 3.50000
 231 0.06597 3.50000
 232 0.06597 3.50000
 233 0.29986 3.40000
 234 0.07596 3.55000
 235 0.06997 3.55000
 236 0.06597 3.50000
 237 0.06597 3.50000
 238 0.10495 3.75000
 239 0.10495 3.75000
 240 0.10495 3.75000
 241 0.10495 3.75000
 242 0.10495 3.75000
 243 0.20990 2.96000
 244 0.16992 3.25000
 245 0.16992 3.25000
 246 0.16992 3.25000
 247 0.00000 0.00000
 248 0.00000 0.00000
 249 0.06597 3.50000
 250 0.06597 3.50000
 251 0.06597 3.50000
 252 0.06597 3.50000
 253 0.06597 3.50000
 254 0.10495 3.75000
 255 0.20990 2.96000
 256 0.16992 3.25000
 257 0.00000 0.00000
 258 0.16992 3.25000
 259 0.10495 3.75000
 260 0.20990 2.96000
 261 0.00000 0.00000
 262 0.01999 2.50000
 263 0.06597 3.50000
 264 0.06597 3.50000
 265 0.06597 3.50000
 266 0.06597 3.50000
 267 0.06997 3.55000
 268 0.14993 3.65000
 269 0.16992 3.20000
 270 0.06997 3.55000
 271 0.29986 3.40000
 272 0.16992 3.25000
 273 0.06997 3.55000
 274 0.10495 3.75000
 275 0.16992 3.00000
 276 0.20990 2.96000
 277 0.00000 0.00000
 278 0.10495 3.75000
 279 0.20990 2.96000
 280 0.06597 3.50000
 281 0.06597 3.50000
 282 0.06597 3.50000
 283 0.06597 3.50000
 284 0.10495 3.75000
 285 0.20990 2.96000
 286 0.01499 2.42000
 287 0.10495 3.75000
 288 0.20990 2.96000
 289 0.01499 2.42000
 290 0.06597 3.50000
 291 0.06597 3.50000
 292 0.06597 3.50000
 293 0.16992 3.25000
 294 0.16992 3.25000
 295 0.16992 3.25000
 296 0.00000 0.00000
 297 0.00000 0.00000
 298 0.06597 3.50000
 299 0.06597 3.50000
 300 0.06597 3.50000
 301 0.06597 3.50000
 302 0.06597 3.50000
 303 0.06597 3.50000
 304 0.06597 3.50000
 305 0.06597 3.50000
 306 0.06597 3.50000
 307 0.06597 3.50000
 308 0.06597 3.50000
 309 0.16992 3.25000
 310 0.00000 0.00000
 311 0.04998 2.25000
 312 0.16992 3.25000
 313 0.00000 0.00000
 314 0.06597 3.50000
 315 0.06597 3.50000
 316 0.06597 3.50000
 317 0.06597 3.50000
 318 0.16992 3.25000
 319 0.00000 0.00000
 320 0.16992 3.25000
 321 0.07996 3.50000
 322 0.16992 3.25000
 323 0.00000 0.00000
 324 0.07996 3.50000
 325 0.04998 2.50000
 326 0.07996 3.50000
 327 0.04998 2.50000
 328 0.16992 3.25000
 329 0.16992 3.25000
 330 0.10495 3.75000
 331 0.16992 3.25000
 332 0.10495 3.75000
 333 0.07996 3.50000
 334 0.07996 3.50000
 335 0.00000 0.00000
 336 0.20990 2.96000
 337 0.00000 0.00000
 338 0.20990 2.96000
 339 0.04998 2.50000
 340 0.04998 2.50000
 341 0.07996 3.50000
 342 0.04998 2.50000
 343 0.16992 3.25000
 344 0.16992 3.25000
 345 0.10495 3.75000
 346 0.16992 3.25000
 347 0.07996 3.50000
 348 0.07996 3.50000
 349 0.07996 3.50000
 350 0.00000 0.00000
 351 0.20990 2.96000
 352 0.16992 3.25000
 353 0.00000 0.00000
 354 0.00000 0.00000
 355 0.04998 2.50000
 356 0.04998 2.50000
 357 0.16992 3.25000
 358 0.07996 3.50000
 359 0.16992 3.25000
 360 0.07996 3.50000
 361 0.07996 3.50000
 362 0.07996 3.50000
 363 0.16992 3.25000
 364 0.07996 3.50000
 365 0.16992 3.25000
 366 0.16992 3.25000
 367 0.04998 2.50000
 368 0.16992 3.25000
 369 0.00000 0.00000
 370 0.00000 0.00000
 371 0.04998 2.50000
 372 0.00000 0.00000
 373 0.16992 3.25000
 374 0.07996 3.50000
 375 0.16992 3.25000
 376 0.07996 3.50000
 377 0.07996 3.50000
 378 0.10495 3.75000
 379 0.00000 0.00000
 380 0.16992 3.25000
 381 0.00000 0.00000
 382 0.20990 2.96000
 383 0.07996 3.50000
 384 0.04998 2.50000
 385 0.07996 3.50000
 386 0.04998 2.50000
 387 0.07996 3.50000
 388 0.04998 2.50000
 389 0.16992 3.25000
 390 0.16992 3.25000
 391 0.10495 3.75000
 392 0.16992 3.25000
 393 0.07996 3.50000
 394 0.07996 3.50000
 395 0.07996 3.50000
 396 0.00000 0.00000
 397 0.20990 2.96000
 398 0.00000 0.00000
 399 0.16992 3.25000
 400 0.00000 0.00000
 401 0.00000 0.00000
 402 0.04998 2.50000
 403 0.04998 2.50000
 404 0.07996 3.50000
 405 0.04998 2.50000
 406 0.19990 3.74000
 407 0.20990 2.96000
 408 0.16992 3.00000
 409 0.06597 3.55000
 410 0.71966 2.73295
 411 0.11773 4.41724
 412 0.08996 4.62376
 413 0.06997 5.40000
 414 6.24701 1.25992
 415 1.60637 1.89744
 416 0.01827 2.12645
 417 0.00277 3.33045
 418 0.00033 4.93463
 419 0.00017 5.62177
 420 0.00008 6.71600
 421 0.87462 1.64447
 422 0.44944 2.41203
 423 0.11817 3.10269
 424 0.04707 3.81661
 425 0.29986 4.20000
 426 0.04998 2.50000
 427 0.49976 4.25000
 428 0.29986 4.20000
 429 0.04998 2.50000
 430 0.24988 3.15000
 431 0.29986 4.20000
 432 0.04998 2.50000
 433 0.14993 3.65000
 434 0.24988 3.40000
 435 0.29986 4.20000
 436 0.04998 2.50000
 437 0.24988 3.40000
 438 0.04998 2.50000
 439 0.29986 4.20000
 440 0.04998 2.50000
 441 0.29986 4.20000
 442 0.04998 2.50000
 443 0.00000 0.00000
 444 0.24988 3.20000
 445 0.00000 0.00000
 446 0.39981 2.81524
 447 0.19990 3.11815
 448 0.19990 3.74000
 449 0.19990 3.15000
 450 0.13993 2.90000
 451 0.06597 3.50000
 452 0.02999 2.50000
 453 0.19990 3.74000
 454 0.19990 3.15000
 455 0.13993 2.90000
 456 0.06597 3.50000
 457 0.02999 2.50000