LAMMPS data file via write_data, version 22 Aug 2018, timestep = 4000000

11125 atoms
5 atom types
11000 bonds
6 bond types
20750 angles
11 angle types
28000 dihedrals
15 dihedral types
500 impropers
1 improper types

1.4506304024785667e+01 6.5493695974992406e+01 xlo xhi
1.4506304024785667e+01 6.5493695974992406e+01 ylo yhi
1.4506304024785667e+01 6.5493695974992406e+01 zlo zhi

Masses

1 12.0107
2 15.9994
3 12.0107
4 15.9994
5 1.00794

Pair Coeffs # lj/cut/coul/long

1 0.0951 3.47299
2 0.0957 3.03315
3 0.0951 3.47299
4 0.0957 3.03315
5 0.0152 2.84642

Bond Coeffs # harmonic

1 350 1.53
2 350 1.42
3 350 1.32
4 700 1.22
5 350 1.43
6 350 1.09

Angle Coeffs # harmonic

1 50 109.47
2 50 109.47
3 50 109.47
4 50 109.47
5 50 109.47
6 50 104.51
7 50 120
8 50 120
9 50 120
10 50 109.47
11 50 109.47

Dihedral Coeffs # harmonic

1 0.1111 1 3
2 0.1111 1 3
3 0.3333 1 3
4 0.3333 1 3
5 0.5 -1 2
6 0.5 -1 2
7 0.1667 1 3
8 0.0833 -1 6
9 0.1667 1 3
10 0.0833 -1 6
11 0.1111 1 3
12 0.1111 1 3
13 0.1111 1 3
14 0.1111 1 3
15 0.1111 1 3

Improper Coeffs # harmonic

1 20 0

Atoms # full

7867 89 1 -5.5899438604999997e-02 1.6429116440364417e+01 2.1043782784164257e+01 2.0338463993009061e+01 1 1 0
7868 89 1 -6.5276132121999994e-02 1.6894454833279813e+01 1.9692524320208335e+01 2.0893811467795263e+01 1 1 0
789 9 5 2.2977513104000001e-02 3.4559767970971549e+01 2.3317320138677456e+01 1.4582999944227719e+01 0 -1 1
7866 89 1 -5.2844670757999999e-02 1.6138226004546674e+01 2.1061267638342269e+01 1.8762520299732572e+01 1 1 0
7905 89 5 2.6264765143000000e-02 1.7241676910385003e+01 2.1787571408072573e+01 2.0625308215498737e+01 1 1 0
7914 89 5 2.2977513104000001e-02 1.7910259076111693e+01 1.9537517365564874e+01 2.0424419392392089e+01 1 1 0
7915 89 5 2.2977513104000001e-02 1.7056441992803631e+01 1.9716567434302704e+01 2.2029638253310125e+01 1 1 0
9794 111 1 6.9063699647000001e-02 2.0031280384778249e+01 2.2075268448281314e+01 2.6630416272137762e+01 0 1 1
9831 111 5 5.7361720903999998e-02 2.0943593491287778e+01 2.2521879006845317e+01 2.6303828156204347e+01 0 1 1
9807 111 4 -2.6497516144900002e-01 2.0389537994205853e+01 2.1379555257257820e+01 2.2403611479957597e+01 0 1 1
9827 111 5 5.7361720903999998e-02 1.7419780164487367e+01 2.1142247559547098e+01 2.6215108451536530e+01 0 1 1
9833 111 5 5.7361720903999998e-02 1.8869880608336452e+01 2.1498221574139102e+01 2.4320011065812743e+01 0 1 1
9799 111 2 -3.1440815438399999e-01 2.0223051455655426e+01 2.0659168439473998e+01 2.6394612495925639e+01 0 1 1
5910 67 1 -6.5276132121999994e-02 1.8955428997586587e+01 1.7195278754385200e+01 1.7102310895479235e+01 0 1 1
5909 67 1 -5.5899438604999997e-02 2.0301649300685696e+01 1.6953634639461466e+01 1.7873210082543746e+01 0 1 1
1974 23 4 -2.6497516144900002e-01 1.5966634333678634e+01 1.6305391549878415e+01 2.0736737340806336e+01 1 0 0
5059 57 5 2.2977513104000001e-02 2.0425107931543117e+01 1.9137656101052293e+01 2.4425238424953029e+01 -1 0 0
1345 16 3 2.6217883716500001e-01 1.6265197559915464e+01 1.7488724090442531e+01 2.6645547596727024e+01 0 1 0
5956 67 5 2.2977513104000001e-02 1.8692113215719772e+01 1.6282310383011009e+01 1.6474278563040517e+01 0 1 1
5957 67 5 2.2977513104000001e-02 1.8187265497822423e+01 1.7501739185823226e+01 1.7825269996812967e+01 0 1 1
5948 67 5 2.6264765143000000e-02 2.0130301519477580e+01 1.6022764180153032e+01 1.8485702586597661e+01 0 1 1
5944 67 5 2.7003581479000002e-02 2.1563744692504955e+01 1.9282214030765893e+01 1.7135816905423923e+01 0 1 1
1357 16 1 3.3198802574999998e-02 1.6505008421586741e+01 1.6195229928280629e+01 2.5970323641968790e+01 0 1 0
7903 89 5 2.6531412109000001e-02 1.7043679842394386e+01 2.0692891190687394e+01 1.8257100466839184e+01 1 1 0
9792 111 1 6.9063699647000001e-02 1.7390087907224704e+01 2.2190379163541973e+01 2.6441452008266886e+01 0 1 1
5908 67 1 -5.2844670757999999e-02 2.0798983912329454e+01 1.8001738132243506e+01 1.8852799821423247e+01 0 1 1
5907 67 1 -4.4063405291000002e-02 2.1003421070052163e+01 1.9394537898563641e+01 1.8142368816848354e+01 0 1 1
5955 67 5 2.2977513104000001e-02 1.9056686855949259e+01 1.8031720429158078e+01 1.6391671823715328e+01 0 1 1
5945 67 5 2.6531412109000001e-02 2.0047044973186061e+01 1.8028788608302428e+01 1.9656690791508240e+01 0 1 1
5946 67 5 2.6531412109000001e-02 2.1774141520302727e+01 1.7645412120035214e+01 1.9267739896026974e+01 0 1 1
5906 67 1 3.3198802574999998e-02 2.1745368115095150e+01 2.0436324005206629e+01 1.8939426766436632e+01 0 1 1
5941 67 5 3.6606329335999999e-02 2.2738730907807074e+01 2.0193236142430820e+01 1.9441655238458559e+01 0 1 1
5060 57 5 2.2977513104000001e-02 1.8751597852238771e+01 1.8835619630443539e+01 2.4200886468103938e+01 -1 0 0
5010 57 1 -6.5276132121999994e-02 1.9713059719446086e+01 1.8374529917352483e+01 2.4356026957032917e+01 -1 0 0
5041 57 5 2.6264765143000000e-02 2.0193996413607401e+01 1.8118621286007642e+01 2.2352170977472504e+01 -1 0 0
5009 57 1 -5.5899438604999997e-02 2.0000926286900754e+01 1.7514303935667311e+01 2.3128297645437062e+01 -1 0 0
5061 57 5 2.2977513104000001e-02 1.9703396897007682e+01 1.7785112197499441e+01 2.5237714011234992e+01 -1 0 0
9822 111 1 3.3198802574999998e-02 2.2223297812421482e+01 1.9353513418265798e+01 2.6881324523755232e+01 0 1 1
5949 67 5 2.2977513104000001e-02 3.1764402137674370e+01 2.6681483107900327e+01 2.1841152165732417e+01 0 1 1
5887 67 3 2.6217883716500001e-01 2.1932899531829591e+01 2.1660604293323836e+01 1.8140855501360583e+01 0 1 1
1387 16 5 3.6606329335999999e-02 1.7457518997863623e+01 1.6317895442562985e+01 2.5510227816525102e+01 0 1 0
5947 67 5 2.6264765143000000e-02 2.1108681865640087e+01 1.6702502573710056e+01 1.7209006846693903e+01 0 1 1
5943 67 5 2.7003581479000002e-02 1.9975985864755881e+01 1.9755954985378391e+01 1.7919071141036490e+01 0 1 1
2014 23 5 2.6531412109000001e-02 1.4974241809669460e+01 1.6732194035006845e+01 1.5890203086820328e+01 1 0 0
5942 67 5 3.6606329335999999e-02 2.1029091082811323e+01 2.0722032561264633e+01 1.9703724615056469e+01 0 1 1
5008 57 1 -5.2844670757999999e-02 2.1153984206288861e+01 1.6559143371595376e+01 2.3398155700610836e+01 -1 0 0
1971 23 3 2.6217883716500001e-01 1.5420830622318181e+01 1.5223046966881025e+01 2.0483093906657722e+01 1 0 0
5040 57 5 2.6531412109000001e-02 2.0865596053156946e+01 1.5826752793673982e+01 2.4069839725773008e+01 -1 0 0
5883 67 2 -3.1440815438399999e-01 2.3135602057084071e+01 2.2064308462793935e+01 1.7789278650225079e+01 0 1 1
5042 57 5 2.6264765143000000e-02 1.9131519186394094e+01 1.6973684867077214e+01 2.2791516184252330e+01 -1 0 0
7906 89 5 2.6264765143000000e-02 1.5573664304292867e+01 2.1421513334786884e+01 2.0924997440139993e+01 1 1 0
6645 75 5 3.6606329335999999e-02 2.9708155035164864e+01 2.4986305523801811e+01 1.5022395952252880e+01 0 0 1
9500 107 5 2.6264765143000000e-02 3.9460439532273227e+01 1.5219413990102296e+01 1.4588069891195527e+01 0 0 1
9858 111 5 3.6606329335999999e-02 2.2546765451188378e+01 1.9721901963542994e+01 2.5947631282528150e+01 0 1 1
5039 57 5 2.6531412109000001e-02 2.1968258438593566e+01 1.7049271387044058e+01 2.4019916021925731e+01 -1 0 0
8709 98 5 2.2977513104000001e-02 2.2922207127315492e+01 1.9628400446009195e+01 2.2030362690336823e+01 0 1 0
1386 16 5 3.6606329335999999e-02 1.6561890729927732e+01 1.5411014343216548e+01 2.6609104718006890e+01 0 1 0
10661 120 5 2.7003581479000002e-02 3.9971008776617111e+01 3.0384148212100886e+01 1.7126728163471753e+01 1 0 0
5038 57 5 2.7003581479000002e-02 2.1024563407547525e+01 1.5200960469984420e+01 2.1689714733955274e+01 -1 0 0
9523 107 5 2.2977513104000001e-02 3.8716379758141777e+01 2.2791307301619874e+01 1.5297125238458150e+01 0 0 1
6597 75 3 2.6217883716500001e-01 2.9113546564774524e+01 2.6888197604892540e+01 1.4631432537228214e+01 0 0 1
9857 111 5 3.6606329335999999e-02 2.1926242791044640e+01 1.8289644790155375e+01 2.6826710841755030e+01 0 1 1
5963 67 5 2.2977513104000001e-02 1.8857149418807072e+01 2.7801171833580010e+01 1.5032335352342795e+01 0 1 1
8710 98 5 2.2977513104000001e-02 2.3758243786608020e+01 1.8554150045482480e+01 2.3155059853936471e+01 0 1 0
5915 67 5 5.7361720903999998e-02 2.3862227951255356e+01 2.2913674518606761e+01 1.9651072700286591e+01 0 1 1
5023 57 5 5.7361720903999998e-02 2.3283158250993186e+01 1.6053543839026425e+01 1.7668183190146465e+01 -1 0 0
5007 57 1 -4.4063405291000002e-02 2.1769855550827845e+01 1.5879862602844577e+01 2.2187031235031682e+01 -1 0 0
5037 57 5 2.7003581479000002e-02 2.2183671563783388e+01 1.6604493269981539e+01 2.1430496731977843e+01 -1 0 0
9795 111 1 6.9063699647000001e-02 1.8827673084214510e+01 2.2520611372760371e+01 2.4386899050868362e+01 0 1 1
9791 111 1 6.6229863866999999e-02 1.8831821606283007e+01 2.2786155889865519e+01 2.5904122705049971e+01 0 1 1
9800 111 3 2.6217883716500001e-01 1.5076984813436766e+01 2.2557735744588214e+01 2.6436270144703943e+01 0 1 1
7865 89 1 -4.4063405291000002e-02 1.5817299053845403e+01 2.2460697519555563e+01 1.8040907904764467e+01 1 1 0
7902 89 5 2.7003581479000002e-02 1.6688021780968850e+01 2.3002825788550290e+01 1.7736099925156367e+01 1 1 0
7901 89 5 2.7003581479000002e-02 1.5244726864015373e+01 2.2092442600819489e+01 1.7158845321388544e+01 1 1 0
8650 98 4 -2.6497516144900002e-01 2.8777947135938263e+01 1.4883518368020876e+01 2.5731241384525031e+01 0 1 0
6922 78 5 2.7003581479000002e-02 3.0476961601448181e+01 2.0298881724374397e+01 2.6951177692497577e+01 0 1 1
7267 82 5 2.6264765143000000e-02 3.5413832999188529e+01 3.1291177457580510e+01 2.4717506939398362e+01 0 0 1
7528 85 5 3.6606329335999999e-02 1.5319036537219130e+01 2.8525166728481160e+01 2.2781338475476900e+01 0 0 1
1389 16 5 2.7003581479000002e-02 1.5918008204796010e+01 1.4821798337252622e+01 2.4522450316672789e+01 0 1 0
6649 75 5 2.6531412109000001e-02 2.7354189943931978e+01 2.3225737239286016e+01 1.4831368220284766e+01 0 0 1
8678 98 5 3.6606329335999999e-02 3.0147236250969691e+01 1.5670666922547912e+01 1.7314298364870009e+01 0 1 0
5030 57 5 3.6606329335999999e-02 2.6892537033588102e+01 1.7412837133299796e+01 1.5272622598989836e+01 -1 0 0
4996 57 3 2.6217883716500001e-01 2.5345681750037098e+01 1.7656024575824190e+01 1.6573933546580648e+01 -1 0 0
8688 98 5 2.6531412109000001e-02 2.6238511027225162e+01 2.0530219532287372e+01 2.3014009455909395e+01 0 1 0
8657 98 1 -5.2844670757999999e-02 2.6253697456853040e+01 1.9668293525458115e+01 2.2403102278175037e+01 0 1 0
8689 98 5 2.6531412109000001e-02 2.6410553868720775e+01 1.8836452650832484e+01 2.3082171842098891e+01 0 1 0
8658 98 1 -5.5899438604999997e-02 2.4925229503166044e+01 1.9595983640241865e+01 2.1614799215935051e+01 0 1 0
8691 98 5 2.6264765143000000e-02 2.4919317901884156e+01 1.8623500386411823e+01 2.1018685396705781e+01 0 1 0
8659 98 1 -6.5276132121999994e-02 2.3775410319877629e+01 1.9583933052107760e+01 2.2667040813891717e+01 0 1 0
8690 98 5 2.6264765143000000e-02 2.4810321964138232e+01 2.0396520376531328e+01 2.0906500670781121e+01 0 1 0
8708 98 5 2.2977513104000001e-02 2.3768395794150670e+01 2.0499149756635337e+01 2.3271308395822889e+01 0 1 0
5002 57 1 3.3198802574999998e-02 2.6088284518747280e+01 1.8115197978124520e+01 1.5400436044218687e+01 -1 0 0
4998 57 4 -2.6497516144900002e-01 2.4661383279421170e+01 1.8451500311269839e+01 1.7185068294226863e+01 -1 0 0
5029 57 5 3.6606329335999999e-02 2.6585845667231805e+01 1.9101740471653454e+01 1.5608199931764780e+01 -1 0 0
8656 98 1 -4.4063405291000002e-02 2.7473411757209650e+01 1.9730907510824977e+01 2.1454422885525524e+01 0 1 0
8686 98 5 2.7003581479000002e-02 2.7308729551373041e+01 2.0602716814639646e+01 2.0805441675463499e+01 0 1 0
8685 98 5 3.6606329335999999e-02 2.8972255470902070e+01 2.1037854058856123e+01 2.2493661305631925e+01 0 1 0
8655 98 1 3.3198802574999998e-02 2.8940896131791700e+01 2.0038601527703644e+01 2.2042080764422550e+01 0 1 0
8687 98 5 2.7003581479000002e-02 2.7480579784469594e+01 1.8849594999226980e+01 2.0790572872639228e+01 0 1 0
8643 98 3 2.6217883716500001e-01 2.9303453004493683e+01 1.9110269134747199e+01 2.3048731426754429e+01 0 1 0
4991 57 2 -3.1440815438399999e-01 2.5236562191363511e+01 1.6323229874594748e+01 1.6791113315909644e+01 -1 0 0
8641 98 2 -3.1440815438399999e-01 2.9131608067736330e+01 1.7810135955913736e+01 2.2767811919448029e+01 0 1 0
8684 98 5 3.6606329335999999e-02 2.9629617899770174e+01 2.0019935595367016e+01 2.1222237026116282e+01 0 1 0
9862 111 5 2.6531412109000001e-02 2.4953637981257515e+01 1.9085624698303132e+01 2.6474975660518410e+01 0 1 1
5024 57 5 5.7361720903999998e-02 2.4603136683384903e+01 1.6383189785990837e+01 1.8735421827000305e+01 -1 0 0
8648 98 4 -2.6497516144900002e-01 2.9755327551181466e+01 1.9550703948825081e+01 2.4115312264859142e+01 0 1 0
8647 98 4 -2.6497516144900002e-01 2.7556504348288414e+01 1.7079490171841236e+01 1.8465507298166777e+01 0 1 0
5912 67 5 5.7361720903999998e-02 2.5811816655774379e+01 2.1704668834314305e+01 1.7314773753440893e+01 0 1 1
5889 67 4 -2.6497516144900002e-01 2.8708734846701006e+01 2.1128716696820735e+01 1.7542289882052977e+01 0 1 1
8635 98 1 6.9063699647000001e-02 3.0300290360063805e+01 1.6997439352904983e+01 2.2422730061752787e+01 0 1 0
8640 98 2 -3.1440815438399999e-01 2.9436663038090309e+01 1.7047316707002512e+01 1.9747551481151259e+01 0 1 0
5911 67 5 5.7361720903999998e-02 2.6190866073208635e+01 2.2136299571431763e+01 1.8978680556066706e+01 0 1 1
5884 67 3 2.6217883716500001e-01 2.8484782417600016e+01 2.2344782198220486e+01 1.7779082567950965e+01 0 1 1
8680 98 5 2.7003581479000002e-02 3.0669361860410696e+01 1.8670140869145392e+01 1.7730574269731775e+01 0 1 0
8645 98 3 2.6217883716500001e-01 2.8811259145668458e+01 1.6925502777963125e+01 1.8488968277365014e+01 0 1 0
8679 98 5 3.6606329335999999e-02 2.9044637805022816e+01 1.6781961574929831e+01 1.6510069410525723e+01 0 1 0
8671 98 5 5.7361720903999998e-02 3.1023740644382713e+01 1.7477155592835345e+01 2.1669560664742818e+01 0 1 0
8651 98 1 3.3198802574999998e-02 2.9704592566245854e+01 1.6682783796489240e+01 1.7312419184463018e+01 0 1 0
8673 98 5 5.7361720903999998e-02 2.7848615163867663e+01 1.6232544395705549e+01 2.0857997811085060e+01 0 1 0
5876 67 1 6.9063699647000001e-02 2.6076530709428365e+01 2.2535779025792657e+01 1.7973954288179463e+01 0 1 1
8636 98 1 6.9063699647000001e-02 2.8842767076865602e+01 1.5918601509545113e+01 2.0555161074602310e+01 0 1 0
8652 98 1 -4.4063405291000002e-02 3.0901012841736065e+01 1.7682432452036661e+01 1.7219686769893976e+01 0 1 0
8683 98 5 2.6531412109000001e-02 3.1756617535769337e+01 1.7224542644911978e+01 1.5314787905929990e+01 0 1 0
9873 111 5 2.2977513104000001e-02 2.5969048796470695e+01 1.6810586362193053e+01 2.6114587854409766e+01 0 1 1
5937 67 5 2.6531412109000001e-02 2.3391138832020332e+01 2.2592044568092284e+01 2.4353416311095014e+01 0 1 1
8634 98 1 6.6229863866999999e-02 2.9763810030820547e+01 1.5642395606609487e+01 2.1810109179254599e+01 0 1 0
6926 78 5 2.6264765143000000e-02 3.1801128723669866e+01 2.2709451030265818e+01 2.5927151518600976e+01 0 1 1
1388 16 5 2.7003581479000002e-02 1.5771208198553053e+01 1.6502037969612378e+01 2.3946324793130241e+01 0 1 0
3603 41 5 5.7361720903999998e-02 3.8991665964131478e+01 2.8365592137563986e+01 2.2673170582516882e+01 0 0 0
4987 57 1 6.9063699647000001e-02 2.4337770277843902e+01 1.5870372696023892e+01 1.7859547944512563e+01 -1 0 0
1350 16 4 -2.6497516144900002e-01 1.6292297553879791e+01 1.8533374283758164e+01 2.5892052929067425e+01 0 1 0
8670 98 5 5.7361720903999998e-02 3.0963024885054779e+01 1.6780447021977594e+01 2.3299648613945710e+01 0 1 0
8653 98 1 -5.2844670757999999e-02 3.1402030019064199e+01 1.8046507321230017e+01 1.5807804335647736e+01 0 1 0
8676 98 5 5.7361720903999998e-02 2.8295034865526787e+01 1.5656906279863739e+01 2.3391574436576047e+01 0 1 0
5896 67 1 3.3198802574999998e-02 2.9528483675141530e+01 2.3264937569629907e+01 1.8136484839215505e+01 0 1 1
5926 67 5 3.6606329335999999e-02 3.0526321861120380e+01 2.2852230594058362e+01 1.7782191990239571e+01 0 1 1
5882 67 2 -3.1440815438399999e-01 2.7314804159060234e+01 2.2975937655321818e+01 1.7455746209479337e+01 0 1 1
5026 57 5 5.7361720903999998e-02 2.6452022560478369e+01 1.4531199933962386e+01 1.9505657874961891e+01 -1 0 0
5928 67 5 2.7003581479000002e-02 2.9869773431529772e+01 2.2455709536775117e+01 2.0054403499703696e+01 0 1 1
5035 57 5 3.6606329335999999e-02 2.3718772780726713e+01 1.5693516842700493e+01 2.2967077981276724e+01 -1 0 0
3565 41 1 6.9063699647000001e-02 3.9707191578886281e+01 2.7778822893172119e+01 2.2146232293566044e+01 0 0 0
8681 98 5 2.7003581479000002e-02 3.1722999844796394e+01 1.7220928036146489e+01 1.7681690956868056e+01 0 1 0
8718 98 5 2.6264765143000000e-02 2.9691675839684688e+01 1.7785453151693005e+01 1.4657835797973705e+01 0 1 0
5952 67 5 2.2977513104000001e-02 2.5947321539527870e+01 2.1664909991118307e+01 2.5271683846323359e+01 0 1 1
5006 57 1 3.3198802574999998e-02 2.2943636448578957e+01 1.4994464811770467e+01 2.2684374055518411e+01 -1 0 0
7285 82 5 2.2977513104000001e-02 3.8184944285955311e+01 3.0798203751633253e+01 2.3515584762547412e+01 0 0 1
8719 98 5 2.6264765143000000e-02 2.9888242442451350e+01 1.9505432375698675e+01 1.5302184472154060e+01 0 1 0
8654 98 1 -5.5899438604999997e-02 3.0382666835148321e+01 1.8602039229970906e+01 1.4844240752924192e+01 0 1 0
8682 98 5 2.6531412109000001e-02 3.2194725970586859e+01 1.8761395455884280e+01 1.5899234465741300e+01 0 1 0
8668 98 1 -5.5899438604999997e-02 3.6011178074154998e+01 1.4921999359638205e+01 2.3838854965857557e+01 0 1 0
8672 98 5 5.7361720903999998e-02 2.8653675341800664e+01 1.4968843489741872e+01 2.0080030965416562e+01 0 1 0
3720 42 5 2.6531412109000001e-02 3.6615527356881529e+01 2.8914649935671903e+01 1.7557867966608086e+01 -1 1 1
9518 107 1 -6.5276132121999994e-02 3.9678526958485890e+01 2.3266822357136661e+01 1.5365525377341381e+01 0 0 1
5954 67 5 2.2977513104000001e-02 2.6586904507507349e+01 2.2371308881240807e+01 2.6783027995189663e+01 0 1 1
5905 67 1 -6.5276132121999994e-02 2.6308929009173447e+01 2.2618711650708796e+01 2.5716473724095358e+01 0 1 1
4955 56 5 3.6606329335999999e-02 2.8258853173774718e+01 1.4535235269029855e+01 1.5162195548001792e+01 0 1 0
768 9 5 2.6531412109000001e-02 3.5801386282511373e+01 2.0110985674914318e+01 1.4977022112129061e+01 0 -1 1
1358 16 1 -4.4063405291000002e-02 1.5639589350133319e+01 1.5815133295529010e+01 2.4817279755269610e+01 0 1 0
7506 85 1 -5.5899438604999997e-02 2.6505435277626155e+01 3.1003641586877148e+01 2.3464009691408670e+01 0 0 1
8638 98 1 6.9063699647000001e-02 2.8981786875925390e+01 1.4941415123793480e+01 2.2969201774183674e+01 0 1 0
5930 67 5 2.6531412109000001e-02 3.1521047957050428e+01 2.4102342949532023e+01 1.9466402581140919e+01 0 1 1
7547 85 5 2.6531412109000001e-02 2.4673384760841767e+01 2.6581140174497243e+01 2.6919188972767159e+01 0 0 1
787 9 5 2.2977513104000001e-02 3.2989867324719583e+01 2.2469938349222232e+01 1.4655183762917392e+01 0 -1 1
1443 17 1 -4.4063405291000002e-02 2.3552089716802428e+01 3.1081697768418817e+01 1.7160423868076855e+01 0 1 0
10659 120 5 3.6606329335999999e-02 3.9860380239876001e+01 3.0310971130179787e+01 2.0233594860423686e+01 1 0 0
3745 43 2 -3.1440815438399999e-01 3.8038083721567261e+01 1.9842629791882970e+01 2.6866044039193962e+01 0 1 0
3622 41 5 2.7003581479000002e-02 3.7875966667639517e+01 2.3792217219165991e+01 1.8881662463910995e+01 0 0 0
6929 78 5 2.2977513104000001e-02 3.2510616325503477e+01 2.1626002386530892e+01 2.0390689772153173e+01 0 1 1
7527 85 5 3.6606329335999999e-02 1.4754181397004013e+01 2.6866016818951429e+01 2.2788352283473834e+01 0 0 1
9457 107 1 -4.4063405291000002e-02 3.8830971371722569e+01 1.8148729434802046e+01 1.8682268852902272e+01 0 0 1
9521 107 5 2.2977513104000001e-02 3.9356935679782907e+01 2.4397269881216474e+01 1.5603993813091821e+01 0 0 1
2447 28 5 5.7361720903999998e-02 3.7929850113697832e+01 1.4687255204107995e+01 1.8440274533087482e+01 1 1 0
7913 89 5 2.2977513104000001e-02 1.6239994206300604e+01 1.8895778328762866e+01 2.0641141024171969e+01 1 1 0
9510 107 5 2.2977513104000001e-02 3.4099184899630501e+01 1.8178982584349246e+01 1.7593657982357001e+01 0 0 1
3638 41 5 2.2977513104000001e-02 3.7329101363667945e+01 2.1386591921394711e+01 2.2945993393563441e+01 0 0 0
3784 43 5 3.6606329335999999e-02 3.6652689693908059e+01 1.6880056457383958e+01 2.6283968197929383e+01 0 1 0
6863 78 3 2.6217883716500001e-01 3.3621469665633882e+01 1.8245217080135124e+01 2.6085396567206999e+01 0 1 1
8702 98 5 2.7003581479000002e-02 3.5512702792190368e+01 1.6671327522734284e+01 2.1421065259690870e+01 0 1 0
6907 78 5 2.7003581479000002e-02 3.2936374115363812e+01 1.8111710735133610e+01 2.3291152225684890e+01 0 1 1
8701 98 5 3.6606329335999999e-02 3.4012567603440637e+01 1.6398312662445583e+01 1.9629640982436101e+01 0 1 0
2420 28 4 -2.6497516144900002e-01 3.6326343792206110e+01 1.5433055856505206e+01 1.6459341709288481e+01 1 1 0
6906 78 5 2.7003581479000002e-02 3.4515528291704371e+01 1.8765049705392002e+01 2.3376081540754679e+01 0 1 1
9491 107 5 2.6264765143000000e-02 3.6193040237847825e+01 1.7018260985493807e+01 1.8427670846449033e+01 0 0 1
9489 107 5 2.6531412109000001e-02 3.7751893512546147e+01 1.8557202193855566e+01 1.6862857881854030e+01 0 0 1
9459 107 1 -5.5899438604999997e-02 3.6222473990633617e+01 1.8077920119328951e+01 1.8344958580504631e+01 0 0 1
6876 78 1 -4.4063405291000002e-02 3.3511248633313151e+01 1.8987610391054769e+01 2.3582246029931650e+01 0 1 1
6904 78 5 3.6606329335999999e-02 3.3879793409659598e+01 2.0167121459656215e+01 2.5300615687007934e+01 0 1 1
9458 107 1 -5.2844670757999999e-02 3.7589901929175717e+01 1.8688944477892363e+01 1.7930615048358629e+01 0 0 1
9490 107 5 2.6531412109000001e-02 3.7628722656520949e+01 1.9732844662046276e+01 1.8207361504239909e+01 0 0 1
6875 78 1 3.3198802574999998e-02 3.3252547541143286e+01 1.9337939741632141e+01 2.5155305526893962e+01 0 1 1
6868 78 4 -2.6497516144900002e-01 3.3588917253789504e+01 1.7089718928380535e+01 2.5737847616149899e+01 0 1 1
6905 78 5 3.6606329335999999e-02 3.2109100303304594e+01 1.9605932744981786e+01 2.5282275087384978e+01 0 1 1
6908 78 5 2.6531412109000001e-02 3.2917668264746666e+01 2.1066365903970915e+01 2.3213897520913626e+01 0 1 1
6877 78 1 -5.2844670757999999e-02 3.3073074424540707e+01 2.0213611905449540e+01 2.2645789239139862e+01 0 1 1
6909 78 5 2.6531412109000001e-02 3.2169149356182572e+01 1.9963541593306317e+01 2.2295683937431747e+01 0 1 1
6878 78 1 -5.5899438604999997e-02 3.3919627815835142e+01 2.0506226115802676e+01 2.1411789323377832e+01 0 1 1
6911 78 5 2.6264765143000000e-02 3.3770556207490564e+01 1.9634256845585753e+01 2.0716529541231019e+01 0 1 1
9460 107 1 -6.5276132121999994e-02 3.5082821906767258e+01 1.8573720514826050e+01 1.7433136871925203e+01 0 0 1
3640 41 5 2.2977513104000001e-02 3.8974202489138563e+01 2.1044614565725173e+01 2.2604555620086522e+01 0 0 0
6910 78 5 2.6264765143000000e-02 3.4990052361856783e+01 2.0588761255719906e+01 2.1697207186752593e+01 0 1 1
6930 78 5 2.2977513104000001e-02 3.3703212390255160e+01 2.2664735872360247e+01 2.1418102936283589e+01 0 1 1
6879 78 1 -6.5276132121999994e-02 3.3532252782133838e+01 2.1808193269475225e+01 2.0652434316241596e+01 0 1 1
3750 43 3 2.6217883716500001e-01 3.7337841475586842e+01 1.8839178132122434e+01 2.6276178165081138e+01 0 1 0
3752 43 4 -2.6497516144900002e-01 3.6669945211645597e+01 1.9164185062501243e+01 2.5262616796182783e+01 0 1 0
3639 41 5 2.2977513104000001e-02 3.7593571586763801e+01 2.0046855137936340e+01 2.1932224772977655e+01 0 0 0
3718 42 5 2.7003581479000002e-02 3.5258946174547788e+01 3.0727110291277224e+01 1.6938805849647917e+01 -1 1 1
3756 43 1 3.3198802574999998e-02 3.7135687540516500e+01 1.7565278131329549e+01 2.6960988443052720e+01 0 1 0
9509 107 5 2.2977513104000001e-02 3.5305075470437210e+01 1.8162063291966756e+01 1.6453481453798478e+01 0 0 1
6928 78 5 2.2977513104000001e-02 3.4216833258528595e+01 2.1946050344240128e+01 1.9766490771442307e+01 0 1 1
9511 107 5 2.2977513104000001e-02 3.5153807331411770e+01 1.9682954392483826e+01 1.7428908067194463e+01 0 0 1
9492 107 5 2.6264765143000000e-02 3.5975356628952945e+01 1.8333434327049147e+01 1.9344985618155750e+01 0 0 1
8666 98 1 -4.4063405291000002e-02 3.4854772159926142e+01 1.5844142968531663e+01 2.1532155616362026e+01 0 1 0
8703 98 5 2.7003581479000002e-02 3.3997283149154150e+01 1.6201635751072029e+01 2.2226791819729726e+01 0 1 0
8665 98 1 3.3198802574999998e-02 3.4300905241407762e+01 1.5446560988330370e+01 2.0124491301688991e+01 0 1 0
8646 98 3 2.6217883716500001e-01 3.3066634363880212e+01 1.4715111710113719e+01 2.0105344602233771e+01 0 1 0
8642 98 2 -3.1440815438399999e-01 3.1972599495688598e+01 1.5457170084829768e+01 2.0493304447626123e+01 0 1 0
3591 41 1 -6.5276132121999994e-02 3.7980703573689951e+01 2.1057146501973484e+01 2.2137628447336802e+01 0 0 0
3626 41 5 2.6264765143000000e-02 3.8700485273521807e+01 2.1587199434415520e+01 2.0139022327252192e+01 0 0 0
3590 41 1 -5.5899438604999997e-02 3.7891982015676902e+01 2.1907715212089585e+01 2.0864571833961524e+01 0 0 0
1511 17 5 2.2977513104000001e-02 2.8319349351489400e+01 3.0018442080207951e+01 1.7580632710375696e+01 0 1 0
3780 43 5 5.7361720903999998e-02 3.8316859661992034e+01 2.2884645517229671e+01 2.5858020586902711e+01 0 1 0
3741 43 1 6.9063699647000001e-02 3.9289500425891418e+01 2.0232476317043385e+01 2.6256306432744069e+01 0 1 0
3777 43 5 5.7361720903999998e-02 3.9156335276217021e+01 2.0357571239481207e+01 2.5267475082466621e+01 0 1 0
8706 98 5 2.6264765143000000e-02 3.6694947780876106e+01 1.5803926641303558e+01 2.3951223355479080e+01 0 1 0
2417 28 4 -2.6497516144900002e-01 3.9428403860697117e+01 1.5376302656095648e+01 2.2195912692287102e+01 1 1 0
5025 57 5 5.7361720903999998e-02 2.6791477464806537e+01 1.4660282895772113e+01 1.7739207809887361e+01 -1 0 0
9488 107 5 2.7003581479000002e-02 3.8637728293769847e+01 1.8606756781302998e+01 1.9727353395563838e+01 0 0 1
9487 107 5 2.7003581479000002e-02 3.8679893507831537e+01 1.6997424749075730e+01 1.8746536633227375e+01 0 0 1
3665 42 4 -2.6497516144900002e-01 3.8053822343629982e+01 2.9806642593564746e+01 1.4990048529199610e+01 -1 1 1
8637 98 1 6.9063699647000001e-02 3.0970062999785505e+01 1.4768440111252685e+01 2.1330445410871921e+01 0 1 0
7507 85 1 -6.5276132121999994e-02 2.7966074252660555e+01 3.1478574010621596e+01 2.3151038367449672e+01 0 0 1
3739 43 1 6.6229863866999999e-02 3.9809992490890195e+01 2.1553270185638592e+01 2.6881384456081822e+01 0 1 0
3742 43 1 6.9063699647000001e-02 3.8691393990457030e+01 2.2698167276649407e+01 2.6901850698810200e+01 0 1 0
2465 28 5 2.7003581479000002e-02 3.4021187919137986e+01 1.5001498008035140e+01 1.5510912045878884e+01 1 1 0
3820 43 5 2.2977513104000001e-02 3.6296532170872887e+01 2.7392740668587699e+01 2.4863792036152486e+01 0 1 0
3770 43 1 3.3198802574999998e-02 3.5380403221494873e+01 2.2829752938313320e+01 2.6804113484429717e+01 0 1 0
788 9 5 2.2977513104000001e-02 3.4398616175678541e+01 2.1903939906376522e+01 1.5734583937670518e+01 0 -1 1
3684 42 1 -5.5899438604999997e-02 3.4875894636310832e+01 2.7772291978697986e+01 1.7691590926974275e+01 -1 1 1
7233 82 1 -5.2844670757999999e-02 3.5836338715795222e+01 3.1118848656479212e+01 2.2594886555129687e+01 0 0 1
7499 85 1 -4.4063405291000002e-02 1.5098275305534191e+01 2.7722298038503709e+01 2.4772411632082679e+01 0 0 1
5890 67 4 -2.6497516144900002e-01 2.0945071036599749e+01 2.2303600699911257e+01 1.7797809670122945e+01 0 1 1
7845 89 3 2.6217883716500001e-01 1.4654571143430896e+01 2.4707976919743686e+01 1.8185798686891829e+01 1 1 0
1445 17 1 -5.5899438604999997e-02 2.6158232001494525e+01 3.0675502884524612e+01 1.7190693547114158e+01 0 1 0
7487 85 3 2.6217883716500001e-01 2.1998297159077637e+01 3.0931953823384958e+01 2.2170546876693329e+01 0 0 1
7234 82 1 -5.5899438604999997e-02 3.6267785930843360e+01 3.1470203424237518e+01 2.4064086913445994e+01 0 0 1
7479 85 1 6.9063699647000001e-02 1.8354368275689669e+01 3.0599750221890016e+01 2.4296411833922996e+01 0 0 1
5878 67 1 6.9063699647000001e-02 2.3690470160417540e+01 2.3155353862840279e+01 1.8613272773164006e+01 0 1 1
7482 85 2 -3.1440815438399999e-01 2.1051035909614203e+01 3.0829927649692944e+01 2.3115082150706094e+01 0 0 1
7483 85 2 -3.1440815438399999e-01 1.7431147584904927e+01 3.0648228140097732e+01 2.5392374078778531e+01 0 0 1
7536 85 5 3.6606329335999999e-02 2.3226043611952019e+01 3.1223916665770030e+01 2.3830714113606483e+01 0 0 1
7848 89 4 -2.6497516144900002e-01 1.5057799013513668e+01 2.5725965618373486e+01 1.8729815477133599e+01 1 1 0
7516 85 5 5.7361720903999998e-02 1.7659064088945328e+01 3.0505591957076298e+01 2.3417774369801222e+01 0 0 1
9798 111 2 -3.1440815438399999e-01 1.6244069587363128e+01 2.2904042823133075e+01 2.5849285441100879e+01 0 1 1
9834 111 5 5.7361720903999998e-02 1.7959940529613672e+01 2.3011125474426052e+01 2.3968402011751451e+01 0 1 1
7493 85 4 -2.6497516144900002e-01 2.1807222030485008e+01 3.1126850466205656e+01 2.0958214798125791e+01 0 0 1
3805 43 5 3.6606329335999999e-02 3.5228929054393603e+01 2.1781233381238330e+01 2.6674980623653909e+01 0 1 0
7522 85 5 3.6606329335999999e-02 1.4754172636695117e+01 3.1297532748702285e+01 2.6178244598930149e+01 0 0 1
1470 17 5 3.6606329335999999e-02 2.2212259465159942e+01 2.9572465951833856e+01 1.6379643905949688e+01 0 1 0
7521 85 5 3.6606329335999999e-02 1.5176349629080974e+01 3.0950693611402812e+01 2.4478926984966559e+01 0 0 1
9801 111 3 2.6217883716500001e-01 2.0207078831493682e+01 2.2576010701543137e+01 2.2562341625188161e+01 0 1 1
9796 111 2 -3.1440815438399999e-01 1.9972094229726036e+01 2.3116716763237623e+01 2.3734108542468334e+01 0 1 1
5895 67 1 -5.5899438604999997e-02 1.8790897439173765e+01 2.5619087621247825e+01 1.4982168827148252e+01 0 1 1
5922 67 5 2.7003581479000002e-02 2.1191506480119596e+01 2.6925626574563516e+01 1.5408767803365325e+01 0 1 1
5958 67 1 -6.5276132121999994e-02 1.8167337836711482e+01 2.6995517742364129e+01 1.4693039215928694e+01 0 1 1
5893 67 1 -4.4063405291000002e-02 2.1363786952021272e+01 2.5876082076869068e+01 1.5190975600308118e+01 0 1 1
3662 42 3 2.6217883716500001e-01 3.7194916526152639e+01 3.0674879355886059e+01 1.4780912086571949e+01 -1 1 1