LAMMPS data file via write_data, version 22 Aug 2018, timestep = 4000000

11125 atoms
5 atom types
11000 bonds
6 bond types
20750 angles
11 angle types
28000 dihedrals
15 dihedral types
500 impropers
1 improper types

1.5042951596808837e+01 6.4957048402950832e+01 xlo xhi
1.5042951596808837e+01 6.4957048402950832e+01 ylo yhi
1.5042951596808837e+01 6.4957048402950832e+01 zlo zhi

Masses

1 12.0107
2 15.9994
3 12.0107
4 15.9994
5 1.00794

Pair Coeffs # lj/cut/coul/long

1 0.0951 3.47299
2 0.0957 3.03315
3 0.0951 3.47299
4 0.0957 3.03315
5 0.0152 2.84642

Bond Coeffs # harmonic

1 350 1.53
2 350 1.42
3 350 1.32
4 700 1.22
5 350 1.43
6 350 1.09

Angle Coeffs # harmonic

1 50 109.47
2 50 109.47
3 50 109.47
4 50 109.47
5 50 109.47
6 50 104.51
7 50 120
8 50 120
9 50 120
10 50 109.47
11 50 109.47

Dihedral Coeffs # harmonic

1 0.1111 1 3
2 0.1111 1 3
3 0.3333 1 3
4 0.3333 1 3
5 0.5 -1 2
6 0.5 -1 2
7 0.1667 1 3
8 0.0833 -1 6
9 0.1667 1 3
10 0.0833 -1 6
11 0.1111 1 3
12 0.1111 1 3
13 0.1111 1 3
14 0.1111 1 3
15 0.1111 1 3

Improper Coeffs # harmonic

1 20 0

Atoms # full

8227 93 5 5.7361720903999998e-02 2.0635368353316480e+01 2.1467466857570635e+01 1.9787218661245905e+01 0 1 0
8200 93 3 2.6217883716500001e-01 2.0805424962070685e+01 1.9464141007466637e+01 2.1461776334730814e+01 0 1 0
8191 93 1 6.9063699647000001e-02 2.1009651409636696e+01 2.0494967887218444e+01 1.9376310251724874e+01 0 1 0
8206 93 1 3.3198802574999998e-02 2.0806836589334292e+01 2.0055000552415887e+01 2.2749278457220562e+01 0 1 0
8207 93 1 -4.4063405291000002e-02 1.9475362064150236e+01 1.9923098252980672e+01 2.3649790528238903e+01 0 1 0
8236 93 5 2.7003581479000002e-02 1.9308024687053390e+01 1.8940236349661031e+01 2.4050321656020735e+01 0 1 0
8209 93 1 -5.5899438604999997e-02 1.8493472908715095e+01 2.0829002160000410e+01 2.5906986650255895e+01 0 1 0
8208 93 1 -5.2844670757999999e-02 1.9624973727695416e+01 2.0829231449687974e+01 2.4888888562565604e+01 0 1 0
8228 93 5 5.7361720903999998e-02 2.0108005257142707e+01 1.9949375597716035e+01 1.9032331915620119e+01 0 1 0
8235 93 5 2.7003581479000002e-02 1.8568551796331530e+01 2.0257769517602213e+01 2.3098259283005017e+01 0 1 0
8190 93 1 6.9063699647000001e-02 2.1164958774171289e+01 2.1285180211584564e+01 1.6895292764937267e+01 0 1 0
8202 93 4 -2.6497516144900002e-01 2.0232031196126744e+01 1.8397186388962730e+01 2.1311076296981689e+01 0 1 0
8189 93 1 6.6229863866999999e-02 2.1985469351647581e+01 2.0756558015770374e+01 1.8182394702632912e+01 0 1 0
8195 93 2 -3.1440815438399999e-01 2.1700330731850190e+01 1.9779814393501848e+01 2.0446726180792531e+01 0 1 0
8230 93 5 5.7361720903999998e-02 2.1845530929994815e+01 1.8780140671792719e+01 1.7434956872960701e+01 0 1 0
262 3 1 -6.5276132121999994e-02 1.6828140658316670e+01 1.9391263335687533e+01 1.9512730883772569e+01 1 0 0
267 3 5 2.2977513104000001e-02 1.6754108589967977e+01 2.0420014753909211e+01 1.9203670342329026e+01 1 0 0
8237 93 5 2.6531412109000001e-02 2.0504625557692123e+01 2.0607782267906121e+01 2.5463274964225501e+01 0 1 0
8226 93 5 5.7361720903999998e-02 2.0463000996553781e+01 2.0486429479045128e+01 1.6615411565841825e+01 0 1 0
199 3 1 -5.5899438604999997e-02 1.6183539127159932e+01 1.9227909453439878e+01 2.0914765309635399e+01 1 0 0
264 3 5 2.6264765143000000e-02 1.6765739658247117e+01 1.9769657680857573e+01 2.1563990200010927e+01 1 0 0
728 9 4 -2.6497516144900002e-01 1.8996243063179314e+01 1.8391647884931619e+01 1.6966582929800154e+01 1 0 1
8234 93 5 3.6606329335999999e-02 2.0896917678825304e+01 2.1105914780934668e+01 2.2579052428016102e+01 0 1 0
8273 93 5 2.6264765143000000e-02 1.8104494105671805e+01 1.9799547529521885e+01 2.6125620218019840e+01 0 1 0
8233 93 5 3.6606329335999999e-02 2.1632187526250526e+01 1.9713560057751941e+01 2.3346734572252547e+01 0 1 0
8272 93 1 -6.5276132121999994e-02 1.7243232022282477e+01 2.1592255078482506e+01 2.5440546767961933e+01 0 1 0
8238 93 5 2.6531412109000001e-02 1.9693296846474070e+01 2.1861931295304579e+01 2.4557286562187933e+01 0 1 0
265 3 5 2.2977513104000001e-02 1.7877144821578387e+01 1.9153606746391901e+01 1.9483053139080447e+01 1 0 0
266 3 5 2.2977513104000001e-02 1.6404610378427350e+01 1.8669316649486827e+01 1.8796187921554100e+01 1 0 0
8239 93 5 3.6606329335999999e-02 1.8016214761391254e+01 2.1908869523585512e+01 1.5663273706923668e+01 0 1 0
255 3 5 2.2977513104000001e-02 2.0474672578286533e+01 1.5961191933763503e+01 2.4481782344740786e+01 1 0 0
8243 93 5 2.6531412109000001e-02 1.5896704197361123e+01 2.1793374102775967e+01 1.7305679659420324e+01 0 1 0
779 9 5 3.6606329335999999e-02 1.8983004523212276e+01 1.6021138601362438e+01 1.7340308018828200e+01 1 0 1
227 3 5 2.6531412109000001e-02 1.7225076074056830e+01 1.7371096411049940e+01 2.1625412542688828e+01 1 0 0
231 3 5 2.7003581479000002e-02 1.7458548330661415e+01 1.5837363504365188e+01 2.6101818601906643e+01 1 0 0
8275 93 5 2.2977513104000001e-02 1.6448373210316170e+01 2.1572041484406913e+01 2.6230526223469163e+01 0 1 0
744 9 1 3.3198802574999998e-02 1.8700883685733544e+01 1.6267460925523210e+01 1.6331548489451063e+01 1 0 1
8225 93 5 5.7361720903999998e-02 2.1835282033408472e+01 2.1516873403234865e+01 1.6124478430142052e+01 0 1 0
2439 28 1 -6.5276132121999994e-02 2.1954327672418408e+01 1.5112582422567504e+01 1.9376455322110381e+01 1 1 0
7087 80 5 2.6531412109000001e-02 2.6392626506820442e+01 2.0507796582166577e+01 1.5848919869731882e+01 1 -1 1
198 3 1 -5.2844670757999999e-02 1.6152808223755549e+01 1.7723314209045427e+01 2.1341670236709916e+01 1 0 0
232 3 5 2.7003581479000002e-02 1.9159931812156348e+01 1.5766926634977541e+01 2.6563894768230085e+01 1 0 0
725 9 3 2.6217883716500001e-01 1.8986274026914899e+01 1.7640520772540661e+01 1.6002818308278496e+01 1 0 1
8274 93 5 2.6264765143000000e-02 1.8887461290076665e+01 2.1280650936519031e+01 2.6834015260182706e+01 0 1 0
8277 93 5 2.2977513104000001e-02 1.6743189615625489e+01 2.1005529552284436e+01 2.4660511818727393e+01 0 1 0
196 3 1 3.3198802574999998e-02 1.5704874635727565e+01 1.8050016322948451e+01 2.3930955903987211e+01 1 0 0
224 3 5 3.6606329335999999e-02 1.6698553747717874e+01 1.7703070016907173e+01 2.4172064219516834e+01 1 0 0
8245 93 5 2.6264765143000000e-02 1.5672014416465291e+01 2.3523943363222244e+01 1.9128527635279806e+01 0 1 0
518 6 5 2.6264765143000000e-02 3.9780379758866232e+01 2.4296688305154980e+01 2.6873825442055775e+01 -1 0 0
254 3 5 2.2977513104000001e-02 2.0325133674440135e+01 1.5832000170003916e+01 2.2669567276802578e+01 1 0 0
201 3 1 -4.4063405291000002e-02 1.8284543291528681e+01 1.5153665173205978e+01 2.6380801382642517e+01 1 0 0
2484 28 5 2.2977513104000001e-02 2.1673702009297415e+01 1.5963655825530694e+01 1.8765546460842312e+01 1 1 0
8213 93 1 -5.5899438604999997e-02 1.5254010780783544e+01 2.3627849405264982e+01 1.8214534098873976e+01 0 1 0
9933 112 5 2.7003581479000002e-02 1.5283783807623770e+01 1.7732426973399516e+01 1.5614085153114592e+01 0 0 1
8276 93 5 2.2977513104000001e-02 1.7523765868321743e+01 2.2625446283783234e+01 2.5254010563516402e+01 0 1 0
204 3 1 -6.5276132121999994e-02 2.0207057707741004e+01 1.5273352915890067e+01 2.3613186221382563e+01 1 0 0
782 9 5 2.7003581479000002e-02 2.0617971324315352e+01 1.5632592539214293e+01 1.5333879196849592e+01 1 0 1
6799 77 1 -5.5899438604999997e-02 3.7107976964429014e+01 2.7207703111007451e+01 2.0983906599686662e+01 0 0 1
225 3 5 2.7003581479000002e-02 1.5178585498624628e+01 1.6373702027975028e+01 2.2694855562516256e+01 1 0 0
2486 28 5 2.2977513104000001e-02 2.2512492222051293e+01 1.5534906010850094e+01 2.0218384158828336e+01 1 1 0
7058 80 1 3.3198802574999998e-02 2.7350407676476202e+01 3.1276021999660607e+01 1.5490711369128011e+01 1 -1 1
8192 93 1 6.9063699647000001e-02 2.2654918791392085e+01 1.9426854507149052e+01 1.7719024650097051e+01 0 1 0
745 9 1 -4.4063405291000002e-02 1.9493705692019137e+01 1.5302363613402052e+01 1.5334649564413169e+01 1 0 1
8193 93 1 6.9063699647000001e-02 2.3149103805194084e+01 2.1713274604473863e+01 1.8635652880983219e+01 0 1 0
8229 93 5 5.7361720903999998e-02 2.3130208706413960e+01 1.8894883090380500e+01 1.8583245093067781e+01 0 1 0
8197 93 2 -3.1440815438399999e-01 2.3559049623714763e+01 1.9512373605321869e+01 1.6596691148070352e+01 0 1 0
5012 57 1 -4.4063405291000002e-02 3.9859425250117425e+01 1.7060503884061866e+01 2.5158233030988072e+01 -1 0 0
228 3 5 2.6531412109000001e-02 1.5897863499429672e+01 1.7029342831216173e+01 2.0491858526680865e+01 1 0 0
8196 93 2 -3.1440815438399999e-01 2.0369244078528077e+01 2.2504096507108411e+01 1.7230166535645697e+01 0 1 0
8241 93 5 2.7003581479000002e-02 1.8041556971395746e+01 2.3104650676018579e+01 1.8203236931565637e+01 0 1 0
8194 93 2 -3.1440815438399999e-01 2.2638282096003973e+01 2.2919940198338260e+01 1.9193957253428312e+01 0 1 0
8266 93 5 2.2977513104000001e-02 1.9396829659969434e+01 2.3726449006457287e+01 2.2064319684208169e+01 0 1 0
6552 74 5 2.6531412109000001e-02 3.9109835398252940e+01 3.1454025909483214e+01 1.9310781495728811e+01 0 1 0
9222 104 5 2.6531412109000001e-02 2.4620823729661126e+01 3.0938349188728914e+01 2.6009277341239528e+01 1 0 1
8255 93 5 3.6606329335999999e-02 2.2116557999150633e+01 1.7812373674497849e+01 1.5281274213388992e+01 0 1 0
7053 80 1 3.3198802574999998e-02 2.5415656179064531e+01 2.3348763885361549e+01 1.5332778679103534e+01 1 -1 1
147 2 5 2.6264765143000000e-02 2.2856672739086477e+01 1.8683700262316542e+01 2.6185119545634208e+01 0 -1 0
7090 80 5 3.6606329335999999e-02 2.7973408490445401e+01 3.1417404057479349e+01 1.6339217204166033e+01 1 -1 1
827 10 1 -6.5276132121999994e-02 2.3825652473635408e+01 3.1407099061272742e+01 2.0647030012407242e+01 1 0 1
114 2 1 -5.5899438604999997e-02 2.3229529934450653e+01 1.8977903334462226e+01 2.7189782879547625e+01 0 -1 0
7083 80 5 3.6606329335999999e-02 2.5391256331561941e+01 2.3234173566859127e+01 1.6361723072234145e+01 1 -1 1
146 2 5 2.6264765143000000e-02 2.2606983401130471e+01 1.9840831214335569e+01 2.7481984231220245e+01 0 -1 0
8204 93 4 -2.6497516144900002e-01 2.4958436656695486e+01 1.7860857759932792e+01 1.6566491258470993e+01 0 1 0
780 9 5 3.6606329335999999e-02 1.7637999086147246e+01 1.6074393580191614e+01 1.6170054343757613e+01 1 0 1
8201 93 3 2.6217883716500001e-01 2.3936538842308366e+01 1.8337982629854068e+01 1.6092607515796068e+01 0 1 0
5600 63 5 2.2977513104000001e-02 3.0911886604538935e+01 1.5444014523859565e+01 1.8650573549442164e+01 1 1 1
143 2 5 2.7003581479000002e-02 2.4460845212144939e+01 2.0384338548869046e+01 2.5330433200226054e+01 0 -1 0
145 2 5 2.6531412109000001e-02 2.5160333789892448e+01 1.8309170171884450e+01 2.6795667106414196e+01 0 -1 0
8232 93 5 5.7361720903999998e-02 2.3723097857691965e+01 2.1909530759313945e+01 1.7743973537360674e+01 0 1 0
8231 93 5 5.7361720903999998e-02 2.3799297996887340e+01 2.1281185179506242e+01 1.9399037568903378e+01 0 1 0
6841 77 5 2.2977513104000001e-02 2.4265793954350269e+01 1.8698072122180271e+01 2.2808553356552316e+01 0 0 1
6840 77 5 2.2977513104000001e-02 2.4339402176423306e+01 1.7116002374467286e+01 2.3584484081260442e+01 0 0 1
2474 28 5 2.6531412109000001e-02 2.3840005760056204e+01 1.5419589197922360e+01 1.7381965711612860e+01 1 1 0
5601 63 5 2.2977513104000001e-02 3.0738061863424477e+01 1.7021249621626449e+01 1.7811320954097539e+01 1 1 1
6822 77 5 2.6264765143000000e-02 2.6671671408071553e+01 1.7995268360692169e+01 2.3161304905859900e+01 0 0 1
140 2 5 3.6606329335999999e-02 2.6725098971227872e+01 1.9541695320174970e+01 2.5162237044812027e+01 0 -1 0
6820 77 5 2.6531412109000001e-02 2.6063753456655459e+01 1.7478284847701342e+01 2.0226430854893959e+01 0 0 1
6819 77 5 2.6531412109000001e-02 2.7659288203452949e+01 1.7847984048610108e+01 2.0931995626371329e+01 0 0 1
6818 77 5 2.7003581479000002e-02 2.5256403282331160e+01 1.9604192446210963e+01 2.0524399515257240e+01 0 0 1
111 2 1 3.3198802574999998e-02 2.6579477007222557e+01 2.0458747796259665e+01 2.5755539475222157e+01 0 -1 0
6789 77 1 -5.5899438604999997e-02 2.6099630862293356e+01 1.7455769917844609e+01 2.2388359860587734e+01 0 0 1
6821 77 5 2.6264765143000000e-02 2.6426280993352130e+01 1.6418447608752555e+01 2.2454279930214245e+01 0 0 1
6816 77 5 3.6606329335999999e-02 2.6431068402819946e+01 1.9455479557819753e+01 1.8468595299373732e+01 0 0 1
6817 77 5 2.7003581479000002e-02 2.6657912518915076e+01 2.0132071423932530e+01 2.1548665778441254e+01 0 0 1
6815 77 5 3.6606329335999999e-02 2.8005340376140794e+01 1.9496416045841350e+01 1.9266906675940032e+01 0 0 1
6786 77 1 3.3198802574999998e-02 2.6985822092876248e+01 1.9894909675669652e+01 1.9300529780136625e+01 0 0 1
6787 77 1 -4.4063405291000002e-02 2.6343276047669399e+01 1.9477664533974885e+01 2.0680395141426452e+01 0 0 1
6788 77 1 -5.2844670757999999e-02 2.6643420731157832e+01 1.7993218578375579e+01 2.1014084796461550e+01 0 0 1
6774 77 3 2.6217883716500001e-01 2.7202122691046682e+01 2.1376229570565332e+01 1.9137716817570741e+01 0 0 1
6772 77 2 -3.1440815438399999e-01 2.8225632627614811e+01 2.1781634554893586e+01 1.9853111769692486e+01 0 0 1
6804 77 5 5.7361720903999998e-02 3.0863091173042974e+01 2.2291853657128794e+01 2.1309302092571588e+01 0 0 1
5588 63 5 2.7003581479000002e-02 3.0847601540965570e+01 1.9514406694191237e+01 1.8173016552331333e+01 1 1 1
6790 77 1 -6.5276132121999994e-02 2.4580789427367051e+01 1.7641853122403639e+01 2.2629055696602137e+01 0 0 1
141 2 5 3.6606329335999999e-02 2.6852561228745635e+01 2.1281918742479682e+01 2.5069654802839942e+01 0 -1 0
6839 77 5 2.2977513104000001e-02 2.4008160362471017e+01 1.7268103930887367e+01 2.1800313241858877e+01 0 0 1
9164 103 5 2.6264765143000000e-02 3.0694474312719024e+01 3.0975494963119218e+01 1.5838482925977020e+01 0 -1 1
104 2 4 -2.6497516144900002e-01 2.8650431444982363e+01 1.9817485713134467e+01 2.6674737400642094e+01 0 -1 0
473 6 1 -4.4063405291000002e-02 3.6389251675098961e+01 2.3971619349341481e+01 1.5093206128598716e+01 -1 0 0
99 2 3 2.6217883716500001e-01 2.7734131668506890e+01 2.0633116165181082e+01 2.6695000556702830e+01 0 -1 0
9242 104 5 2.2977513104000001e-02 2.6474744076635616e+01 3.1060309802000369e+01 2.3589863692254170e+01 1 0 1
5045 57 5 2.7003581479000002e-02 3.9700050900193986e+01 1.7940045498926860e+01 2.5784880406991221e+01 -1 0 0
6779 77 4 -2.6497516144900002e-01 2.6623511798799882e+01 2.2116827922091620e+01 1.8304600059261965e+01 0 0 1
5587 63 5 2.7003581479000002e-02 3.0788443960169388e+01 2.0344042288023147e+01 1.9794347515115771e+01 1 1 1
5061 57 5 2.2977513104000001e-02 2.9807511573562945e+01 1.7203896050173572e+01 2.5675982529273682e+01 -1 0 0
112 2 1 -4.4063405291000002e-02 2.5062209862672727e+01 2.0471363077983661e+01 2.6218310123704512e+01 0 -1 0
857 10 5 2.6531412109000001e-02 2.1194700284740520e+01 3.0997744109567879e+01 2.2006199057096872e+01 1 0 1
113 2 1 -5.2844670757999999e-02 2.4714401833916952e+01 1.9284243725811599e+01 2.7164901880599082e+01 0 -1 0
5592 63 5 2.6264765143000000e-02 3.0163241125980974e+01 1.7520554045425200e+01 2.0006182240892123e+01 1 1 1
5553 63 1 -5.5899438604999997e-02 3.1250419974580339e+01 1.7272650458654759e+01 1.9848612103354256e+01 1 1 1
5554 63 1 -6.5276132121999994e-02 3.1349437619367780e+01 1.6422050479635011e+01 1.8513699485087393e+01 1 1 1
5599 63 5 2.2977513104000001e-02 3.2363114627744139e+01 1.6300814514838702e+01 1.8064774225952682e+01 1 1 1
2684 31 4 -2.6497516144900002e-01 3.5623780041021277e+01 2.4871627392999848e+01 2.4957131514033502e+01 0 0 0
8134 92 1 -5.5899438604999997e-02 3.3898491746016312e+01 1.5176634397261633e+01 2.2950980325250782e+01 -1 0 1
5551 63 1 -4.4063405291000002e-02 3.1410465900215200e+01 1.9846665628054595e+01 1.9026494567086630e+01 1 1 1
142 2 5 2.7003581479000002e-02 2.4879009565310213e+01 2.1442757896024649e+01 2.6697574903690104e+01 0 -1 0
9243 104 5 2.2977513104000001e-02 2.6804023515363916e+01 3.1072030766327384e+01 2.5296103661147008e+01 1 0 1
223 3 5 3.6606329335999999e-02 1.5732646621435899e+01 1.9120910072706302e+01 2.3775743195635130e+01 1 0 0
7085 80 5 2.7003581479000002e-02 2.7536973239379154e+01 2.3004265238047175e+01 1.5565112799850811e+01 1 -1 1
6803 77 5 5.7361720903999998e-02 2.9415879307375562e+01 2.2006637863159952e+01 2.2506322847742489e+01 0 0 1
6767 77 1 6.9063699647000001e-02 3.0183168815431845e+01 2.2717916224892310e+01 2.2094290096786118e+01 0 0 1
6801 77 5 5.7361720903999998e-02 2.7219735224465026e+01 2.3031957446907825e+01 2.1102617004048017e+01 0 0 1
6766 77 1 6.9063699647000001e-02 2.8154333685194494e+01 2.3091976163312403e+01 2.0516839546732307e+01 0 0 1
5591 63 5 2.6264765143000000e-02 3.1612990386069100e+01 1.6704390339254065e+01 2.0699144993830522e+01 1 1 1
478 6 1 -4.4063405291000002e-02 3.9669751457563549e+01 2.3861498148768007e+01 2.3843252821567052e+01 -1 0 0
2678 31 2 -3.1440815438399999e-01 3.6045397509790078e+01 3.1288095150156401e+01 2.7051426115867329e+01 0 0 0
5060 57 5 2.2977513104000001e-02 3.1057762874755376e+01 1.7028987595084963e+01 2.4548876507468151e+01 -1 0 0
5010 57 1 -6.5276132121999994e-02 3.0610322187710366e+01 1.7764984459007106e+01 2.5273186682196645e+01 -1 0 0
5059 57 5 2.2977513104000001e-02 3.0216203887095695e+01 1.8509481760943633e+01 2.4613446076590236e+01 -1 0 0
6778 77 4 -2.6497516144900002e-01 3.1138914492965405e+01 2.1211157382323648e+01 2.4228830201366307e+01 0 0 1
5552 63 1 -5.2844670757999999e-02 3.2037460241296152e+01 1.8630568368783379e+01 1.9742599456583104e+01 1 1 1
5589 63 5 2.6531412109000001e-02 3.2309445881867831e+01 1.8896430385945095e+01 2.0708268488167569e+01 1 1 1
6547 74 5 2.6531412109000001e-02 3.7727046118561731e+01 2.8013488871854484e+01 1.5373398397505380e+01 0 1 0
866 10 5 2.6264765143000000e-02 1.5700383351025129e+01 2.9215780330969402e+01 2.3658854031596327e+01 1 0 1
4990 57 2 -3.1440815438399999e-01 3.6650962480619306e+01 1.5426674846608591e+01 2.5981551075546498e+01 -1 0 0
6543 74 5 3.6606329335999999e-02 3.6143723765494641e+01 2.9601025624075540e+01 1.5781096598967300e+01 0 1 0
5586 63 5 3.6606329335999999e-02 3.1856724921325291e+01 2.1966957247699053e+01 1.8549608714852834e+01 1 1 1
5550 63 1 3.3198802574999998e-02 3.2397217066734989e+01 2.1020925627952568e+01 1.8698719518085738e+01 1 1 1
5559 63 5 5.7361720903999998e-02 3.1509539006007270e+01 1.8907109524811144e+01 1.6074533468143979e+01 1 1 1
5567 63 5 2.6531412109000001e-02 3.6593706674435126e+01 1.6451291990614603e+01 1.9132505852415807e+01 1 1 1
5566 63 5 2.7003581479000002e-02 3.6413412007611910e+01 1.6289955607076799e+01 1.6698606001700661e+01 1 1 1
8172 92 5 2.6264765143000000e-02 3.2802306546763987e+01 1.5347548914291858e+01 2.3001428147765761e+01 -1 0 1
4995 57 3 2.6217883716500001e-01 3.7408098836806083e+01 1.6454908070580029e+01 2.5675698443355987e+01 -1 0 0
5607 63 5 2.2977513104000001e-02 3.8130332894977379e+01 1.8936111111494181e+01 2.1440977340998156e+01 1 1 1
5606 63 5 2.2977513104000001e-02 3.9072191110340498e+01 1.7844920799884186e+01 2.0572485356188171e+01 1 1 1
5605 63 5 2.2977513104000001e-02 3.7642123606349116e+01 1.7362563538022897e+01 2.1408243856911785e+01 1 1 1
8181 92 5 2.2977513104000001e-02 3.5835487227992260e+01 1.6146934340148171e+01 2.3223603355561799e+01 -1 0 1
5040 57 5 2.6531412109000001e-02 3.2147113465177739e+01 1.6270555055731375e+01 2.6856286135488006e+01 -1 0 0
5009 57 1 -5.5899438604999997e-02 3.1693973039739230e+01 1.8298220571038385e+01 2.6294237398398515e+01 -1 0 0
5041 57 5 2.6264765143000000e-02 3.1367457918367485e+01 1.9240843129109834e+01 2.6742912766402100e+01 -1 0 0
5008 57 1 -5.2844670757999999e-02 3.2203231154500486e+01 1.7269904515503860e+01 2.7313560128338821e+01 -1 0 0
5042 57 5 2.6264765143000000e-02 3.2522937563636397e+01 1.8576028916292138e+01 2.5607222104484631e+01 -1 0 0
5585 63 5 3.6606329335999999e-02 3.3068712428218106e+01 2.1076349661768763e+01 1.9556656964469283e+01 1 1 1
5590 63 5 2.6531412109000001e-02 3.3015311824351834e+01 1.8503591890629156e+01 1.9209332203610970e+01 1 1 1
5538 63 1 -5.2844670757999999e-02 3.7218959284761858e+01 1.7121360063012805e+01 1.8580388755831162e+01 1 1 1
8135 92 1 -6.5276132121999994e-02 3.4780038186306172e+01 1.6478112907236213e+01 2.3090688844216174e+01 -1 0 1
5531 63 3 2.6217883716500001e-01 3.3257634049501370e+01 2.0661435528775645e+01 1.7575963307672513e+01 1 1 1
5536 63 1 3.3198802574999998e-02 3.7089017019138332e+01 1.8342592176605038e+01 1.6231552698250631e+01 1 1 1
5603 63 5 2.6264765143000000e-02 3.7712257814041912e+01 1.9284860202080438e+01 1.8984141749470673e+01 1 1 1
8182 92 5 2.2977513104000001e-02 3.4669896484102921e+01 1.7175493911135881e+01 2.2249802446403486e+01 -1 0 1
5534 63 4 -2.6497516144900002e-01 3.4443871142291670e+01 2.0631875787962670e+01 1.7832823314825575e+01 1 1 1
6784 77 1 -5.2844670757999999e-02 3.5300013591607112e+01 2.1960575128872751e+01 2.2130320772707897e+01 0 0 1
6813 77 5 2.6531412109000001e-02 3.5576179617512423e+01 2.1360361544413671e+01 2.1287730182458219e+01 0 0 1
5537 63 1 -4.4063405291000002e-02 3.6523212026433882e+01 1.7265149123855775e+01 1.7173668576124964e+01 1 1 1
6785 77 1 -5.5899438604999997e-02 3.6383788607468425e+01 2.1615687187893315e+01 2.3161404462355001e+01 0 0 1
488 6 5 5.7361720903999998e-02 3.8184392750034249e+01 2.1447549168046784e+01 1.8954435219447326e+01 -1 0 0
450 6 1 6.9063699647000001e-02 3.8620752297954262e+01 2.2397770053250504e+01 1.8621493468716441e+01 -1 0 0
6848 77 1 -6.5276132121999994e-02 3.6285511360287948e+01 2.0394861987960049e+01 2.4129356298807412e+01 0 0 1
6851 77 5 2.2977513104000001e-02 3.5421845969087755e+01 2.0368141200067530e+01 2.4691610038558984e+01 0 0 1
6852 77 5 2.2977513104000001e-02 3.6318565921111187e+01 1.9454134907202072e+01 2.3546050742187013e+01 0 0 1
6853 77 5 2.2977513104000001e-02 3.7110428014203585e+01 2.0372458763664309e+01 2.4854414412607106e+01 0 0 1
6850 77 5 2.6264765143000000e-02 3.6563444094750139e+01 2.2461908228626662e+01 2.3815989588630725e+01 0 0 1
6849 77 5 2.6264765143000000e-02 3.7310162623397602e+01 2.1550712690606311e+01 2.2661895662139891e+01 0 0 1
5539 63 1 -5.5899438604999997e-02 3.7291652150577349e+01 1.8412091803154560e+01 1.9481214916410888e+01 1 1 1
5564 63 5 3.6606329335999999e-02 3.6932505586567842e+01 1.9309301282378009e+01 1.6704638050690498e+01 1 1 1
8180 92 5 2.2977513104000001e-02 3.4516882163317220e+01 1.6942285514135143e+01 2.4020593035432626e+01 -1 0 1
5560 63 5 5.7361720903999998e-02 3.3055370714117480e+01 1.8350717432149970e+01 1.6520357350965330e+01 1 1 1
5604 63 5 2.6264765143000000e-02 3.6275655184004066e+01 1.8657665886747029e+01 1.9786775476343522e+01 1 1 1
5563 63 5 3.6606329335999999e-02 3.8120846697000786e+01 1.8126054204292053e+01 1.6186162609572975e+01 1 1 1
5527 63 2 -3.1440815438399999e-01 3.2867292205487665e+01 2.0511168790930107e+01 1.6292989536057984e+01 1 1 1
5565 63 5 2.7003581479000002e-02 3.5567655605562017e+01 1.7567358706436767e+01 1.7408084380370362e+01 1 1 1
5568 63 5 2.6531412109000001e-02 3.8154201651369519e+01 1.6575405854816704e+01 1.8454669855308634e+01 1 1 1
6811 77 5 2.7003581479000002e-02 3.3647359962682017e+01 2.0587561695793379e+01 2.2562157024159816e+01 0 0 1
6783 77 1 -4.4063405291000002e-02 3.3824089857148948e+01 2.1659357868087987e+01 2.2469383534024672e+01 0 0 1
5602 63 1 -6.5276132121999994e-02 3.8094367917889045e+01 1.8108107317462910e+01 2.0822670460496184e+01 1 1 1
505 6 5 3.6606329335999999e-02 3.5253580434581949e+01 2.2417512968417235e+01 1.6074637731098370e+01 -1 0 0
6810 77 5 3.6606329335999999e-02 3.3719518741896877e+01 2.1900074908096858e+01 2.4627210315206419e+01 0 0 1
489 6 5 5.7361720903999998e-02 3.8328764583630516e+01 2.3010290471837113e+01 1.9459014795669340e+01 -1 0 0
6812 77 5 2.7003581479000002e-02 3.3219866542907866e+01 2.2013438299850424e+01 2.1645100116589756e+01 0 0 1
5044 57 5 3.6606329335999999e-02 3.8126988300742028e+01 1.7207998220633478e+01 2.3858228369643669e+01 -1 0 0
5001 57 4 -2.6497516144900002e-01 3.6905231158546862e+01 1.7507348861924868e+01 2.5936897075794342e+01 -1 0 0
5522 63 1 6.9063699647000001e-02 3.2531926503903762e+01 1.9113619637228616e+01 1.5909488482783933e+01 1 1 1
9223 104 5 2.6531412109000001e-02 2.3878969027797559e+01 3.1059555688673107e+01 2.4368377252693893e+01 1 0 1
5011 57 1 3.3198802574999998e-02 3.8445918176780580e+01 1.6526949247022976e+01 2.4645484012121333e+01 -1 0 0
9218 104 5 3.6606329335999999e-02 2.2463666158120919e+01 3.0591651856472641e+01 2.7298297259754584e+01 1 0 1
456 6 3 2.6217883716500001e-01 3.6726841659173488e+01 2.2889309129376137e+01 1.7316630200368230e+01 -1 0 0
472 6 1 3.3198802574999998e-02 3.6275918414056683e+01 2.2701315527422594e+01 1.5992727220036642e+01 -1 0 0
451 6 2 -3.1440815438399999e-01 3.8064017436088847e+01 2.2923618921959033e+01 1.7381701995941295e+01 -1 0 0
462 6 4 -2.6497516144900002e-01 3.6151923947926178e+01 2.3693978362514294e+01 1.8044119884517940e+01 -1 0 0
6782 77 1 3.3198802574999998e-02 3.3244429017667315e+01 2.2337328148134681e+01 2.3732217101399094e+01 0 0 1
2715 31 5 3.6606329335999999e-02 3.6329273854259924e+01 2.3266920859158958e+01 2.7116047875978936e+01 0 0 0
6814 77 5 2.6531412109000001e-02 3.5386103335952740e+01 2.3031159960899181e+01 2.2024599312318941e+01 0 0 1
236 3 5 2.6264765143000000e-02 1.8033347987485335e+01 1.5646615991074118e+01 2.3672943126526221e+01 1 0 0
123 2 1 -5.2844670757999999e-02 3.1691064524274513e+01 2.6766392284160595e+01 2.5231158961568170e+01 0 -1 0
6776 77 3 2.6217883716500001e-01 3.1709453491861634e+01 2.2190502471439657e+01 2.3741942540830387e+01 0 0 1
6797 77 1 -4.4063405291000002e-02 3.4621891631006584e+01 2.6429309360997454e+01 2.0812211508380933e+01 0 0 1
9219 104 5 3.6606329335999999e-02 2.1666183189934742e+01 3.1268849666120129e+01 2.5972099507291261e+01 1 0 1
5038 57 5 2.7003581479000002e-02 3.4317991375688948e+01 1.7295856380294214e+01 2.7247677672977886e+01 -1 0 0
8240 93 5 3.6606329335999999e-02 1.8029879380218286e+01 2.3623461426520361e+01 1.5237875823500591e+01 0 1 0
8203 93 4 -2.6497516144900002e-01 2.0448599227240983e+01 2.3867469225260514e+01 1.5506094639689852e+01 0 1 0
6546 74 5 2.6531412109000001e-02 3.7893978999281089e+01 2.7513291537873044e+01 1.7039627665722783e+01 0 1 0
197 3 1 -4.4063405291000002e-02 1.5183424520062022e+01 1.7484676707802503e+01 2.2576771345492737e+01 1 0 0
6585 74 5 2.2977513104000001e-02 3.9270543389355701e+01 2.5628618542599725e+01 1.5389409475912020e+01 0 1 0
843 10 5 5.7361720903999998e-02 1.5919911081194851e+01 2.8291958962143759e+01 1.5277196008557734e+01 1 0 1
1507 17 5 2.2977513104000001e-02 3.4270054458460038e+01 3.0596454426692446e+01 2.2371106937851977e+01 0 1 0
864 10 5 2.6531412109000001e-02 1.5472326817651529e+01 2.6966449766186358e+01 2.3028134348241323e+01 1 0 1
8210 93 1 3.3198802574999998e-02 1.8361117600760156e+01 2.2910854637385114e+01 1.5994938754966375e+01 0 1 0
8212 93 1 -5.2844670757999999e-02 1.6098053603967220e+01 2.2891056069817381e+01 1.7180830738539722e+01 0 1 0
8198 93 3 2.6217883716500001e-01 1.9821220913693864e+01 2.2984719843389325e+01 1.6122079148234022e+01 0 1 0
8211 93 1 -4.4063405291000002e-02 1.7565741026526393e+01 2.3419203706624181e+01 1.7226046741647188e+01 0 1 0
8246 93 5 2.6264765143000000e-02 1.5177186457185012e+01 2.4723212964049221e+01 1.8004474376961245e+01 0 1 0
8244 93 5 2.6531412109000001e-02 1.5750921086039417e+01 2.3127965802668399e+01 1.6186089847618941e+01 0 1 0
880 10 5 2.2977513104000001e-02 1.6044132097686603e+01 2.8151910674072070e+01 2.5480498878385717e+01 1 0 1
808 10 2 -3.1440815438399999e-01 1.5927866951304891e+01 3.0807088433653302e+01 1.6029380464133439e+01 1 0 1
810 10 2 -3.1440815438399999e-01 1.7959756990388581e+01 2.8039381151953755e+01 1.5722639609380785e+01 1 0 1
185 3 2 -3.1440815438399999e-01 1.5368298395048885e+01 1.8315360080262259e+01 2.6289507904264148e+01 1 0 0
7081 80 5 2.6531412109000001e-02 3.0464199729706060e+01 3.1573896815456767e+01 2.0113523426138212e+01 1 -1 1
6515 74 1 3.3198802574999998e-02 3.6565737753054947e+01 2.9905467158637755e+01 1.6754336781969361e+01 0 1 0
8267 93 5 2.2977513104000001e-02 1.8741653830729121e+01 2.5327969517274774e+01 2.2209187321723821e+01 0 1 0
7098 80 5 3.6606329335999999e-02 3.2440671756057498e+01 2.6584692836709994e+01 1.6415460746365149e+01 1 -1 1
515 6 5 2.7003581479000002e-02 3.9127031309632216e+01 2.3092520535635423e+01 2.4377911792790300e+01 -1 0 0
826 10 1 -5.5899438604999997e-02 2.2361180213268728e+01 3.1261251285105235e+01 2.0099729895697237e+01 1 0 1
7111 80 5 2.2977513104000001e-02 2.3750902699527582e+01 2.9522389334448654e+01 1.6209460780686829e+01 1 -1 1
7062 80 1 -6.5276132121999994e-02 2.3100499706889629e+01 2.9827030023044905e+01 1.5441508755251997e+01 1 -1 1
7109 80 5 2.2977513104000001e-02 2.2037895589492408e+01 2.9841602377787151e+01 1.5782777064440308e+01 1 -1 1
9245 104 5 2.2977513104000001e-02 1.8401578568225649e+01 2.4657145346953335e+01 2.5819007715422387e+01 1 0 1
8254 93 5 2.6264765143000000e-02 2.0020031218768100e+01 2.4236952061640622e+01 1.9651107476344016e+01 0 1 0
8268 93 5 2.2977513104000001e-02 1.8060483476472026e+01 2.4298660381264678e+01 2.0967759867656845e+01 0 1 0
6842 77 5 2.2977513104000001e-02 2.1215762288425424e+01 2.3348617935873797e+01 2.3779863032913010e+01 0 0 1
805 10 1 6.9063699647000001e-02 1.6584755416379700e+01 2.7993723452765749e+01 1.6052810731017271e+01 1 0 1
8219 93 1 -6.5276132121999994e-02 1.8940137656223364e+01 2.4558644246498666e+01 2.1496225785926914e+01 0 1 0
825 10 1 -5.2844670757999999e-02 2.1377609428456005e+01 3.0502550236651579e+01 2.1020425615491863e+01 1 0 1
8242 93 5 2.7003581479000002e-02 1.7589137505132054e+01 2.4493712291486627e+01 1.7217207267876724e+01 0 1 0
9198 104 1 -6.5276132121999994e-02 1.7709253204173343e+01 2.5337034414167135e+01 2.6227985720636440e+01 1 0 1
855 10 5 2.7003581479000002e-02 1.9504062304395202e+01 3.1161379265648808e+01 2.0205436526103973e+01 1 0 1
852 10 5 3.6606329335999999e-02 1.9779557706716552e+01 2.8672370712287822e+01 2.1744494957598128e+01 1 0 1
841 10 5 5.7361720903999998e-02 1.7811249342272642e+01 3.0543524771823499e+01 1.6903829025048857e+01 1 0 1
804 10 1 6.9063699647000001e-02 1.6755510416474891e+01 3.0327560165696603e+01 1.7123279203804358e+01 1 0 1