LAMMPS data file via write_data, version 22 Aug 2018, timestep = 4000000

11125 atoms
5 atom types
11000 bonds
6 bond types
20750 angles
11 angle types
28000 dihedrals
15 dihedral types
500 impropers
1 improper types

1.5112715363912869e+01 6.4887284635833680e+01 xlo xhi
1.5112715363912869e+01 6.4887284635833680e+01 ylo yhi
1.5112715363912869e+01 6.4887284635833680e+01 zlo zhi

Masses

1 12.0107
2 15.9994
3 12.0107
4 15.9994
5 1.00794

Pair Coeffs # lj/cut/coul/long

1 0.0951 3.47299
2 0.0957 3.03315
3 0.0951 3.47299
4 0.0957 3.03315
5 0.0152 2.84642

Bond Coeffs # harmonic

1 350 1.53
2 350 1.42
3 350 1.32
4 700 1.22
5 350 1.43
6 350 1.09

Angle Coeffs # harmonic

1 50 109.47
2 50 109.47
3 50 109.47
4 50 109.47
5 50 109.47
6 50 104.51
7 50 120
8 50 120
9 50 120
10 50 109.47
11 50 109.47

Dihedral Coeffs # harmonic

1 0.1111 1 3
2 0.1111 1 3
3 0.3333 1 3
4 0.3333 1 3
5 0.5 -1 2
6 0.5 -1 2
7 0.1667 1 3
8 0.0833 -1 6
9 0.1667 1 3
10 0.0833 -1 6
11 0.1111 1 3
12 0.1111 1 3
13 0.1111 1 3
14 0.1111 1 3
15 0.1111 1 3

Improper Coeffs # harmonic

1 20 0

Atoms # full

5545 63 1 3.3198802574999998e-02 1.9762844322788659e+01 2.2371963844980794e+01 1.8456704514780984e+01 1 1 1
1713 20 1 3.3198802574999998e-02 2.1525501231210857e+01 1.9895569144369084e+01 2.1664154387395715e+01 0 0 1
5578 63 5 3.6606329335999999e-02 1.9573168015464457e+01 2.3387233230382193e+01 1.8221365169465315e+01 1 1 1
5580 63 5 2.7003581479000002e-02 1.8791968996527956e+01 2.0789925878803707e+01 1.9694495620071422e+01 1 1 1
5546 63 1 -4.4063405291000002e-02 1.8601983739252912e+01 2.1834341301691722e+01 1.9331178629010495e+01 1 1 1
1701 20 3 2.6217883716500001e-01 2.2535407585886009e+01 2.0898792773030578e+01 2.1809854648952633e+01 0 0 1
5547 63 1 -5.2844670757999999e-02 1.8347703866364593e+01 2.2791061846573442e+01 2.0587289323971838e+01 1 1 1
5582 63 5 2.6531412109000001e-02 1.7936684898020093e+01 2.2155058350342117e+01 2.1380752575052185e+01 1 1 1
5577 63 5 3.6606329335999999e-02 2.0668315817961417e+01 2.2319226925357345e+01 1.9082783088925368e+01 1 1 1
1714 20 1 -4.4063405291000002e-02 2.0417041549356064e+01 2.0038588201759925e+01 2.2798449518042766e+01 0 0 1
1745 20 5 2.7003581479000002e-02 2.0054528538724494e+01 2.1074611183821744e+01 2.2888198877811831e+01 0 0 1
1744 20 5 2.7003581479000002e-02 2.0850373453259522e+01 1.9871561171847986e+01 2.3767139151843942e+01 0 0 1
1715 20 1 -5.2844670757999999e-02 1.9211979706665240e+01 1.9015089547037196e+01 2.2632452193194922e+01 0 0 1
5579 63 5 2.7003581479000002e-02 1.7621216908278932e+01 2.1837880765702714e+01 1.8764924938853795e+01 1 1 1
1743 20 5 3.6606329335999999e-02 2.1101299843088849e+01 1.9983011219823659e+01 2.0641333726662964e+01 0 0 1
1742 20 5 3.6606329335999999e-02 2.1914876946118248e+01 1.8837533377145153e+01 2.1649750824938280e+01 0 0 1
1746 20 5 2.6531412109000001e-02 1.9662511559320972e+01 1.8043569017494068e+01 2.2856431469693909e+01 0 0 1
1747 20 5 2.6531412109000001e-02 1.8863183649235044e+01 1.9014806293766764e+01 2.1645118109378949e+01 0 0 1
5581 63 5 2.6531412109000001e-02 1.9334647263142731e+01 2.3045686583083089e+01 2.0951250803676899e+01 1 1 1
5548 63 1 -5.5899438604999997e-02 1.7498978157990415e+01 2.4059865550011995e+01 2.0350227364568834e+01 1 1 1
8112 92 3 2.6217883716500001e-01 1.6693187507584746e+01 1.8164368941348631e+01 1.8026033835261739e+01 -1 0 1
5529 63 3 2.6217883716500001e-01 1.9922385001423805e+01 2.1610733304534662e+01 1.7240921685038547e+01 1 1 1
8115 92 4 -2.6497516144900002e-01 1.7688210431847448e+01 1.8853573357912222e+01 1.8268521253323883e+01 -1 0 1
1716 20 1 -5.5899438604999997e-02 1.8018105947148520e+01 1.9363495485925238e+01 2.3558225807308226e+01 0 0 1
1748 20 5 2.6264765143000000e-02 1.8393243414465385e+01 1.9213746672630592e+01 2.4618906120878055e+01 0 0 1
5584 63 5 2.6264765143000000e-02 1.6501089385074774e+01 2.3776984149976968e+01 2.0175893756023754e+01 1 1 1
8131 92 1 3.3198802574999998e-02 1.6761105742714783e+01 1.6757920626120931e+01 1.8146650876537588e+01 -1 0 1
4267 48 1 -6.5276132121999994e-02 2.0669728663298244e+01 2.3893023563401321e+01 2.4483822730271527e+01 1 1 0
4204 48 1 -5.5899438604999997e-02 1.9611693126979539e+01 2.4429370883177526e+01 2.5455601429945819e+01 1 1 0
1749 20 5 2.6264765143000000e-02 1.7665488494482435e+01 2.0402806655063237e+01 2.3466728821902223e+01 0 0 1
5583 63 5 2.6264765143000000e-02 1.7795261431204519e+01 2.4542742779878743e+01 1.9431807184055831e+01 1 1 1
5535 63 4 -2.6497516144900002e-01 2.1002704811407554e+01 2.1017792561320199e+01 1.7053807017710525e+01 1 1 1
5524 63 2 -3.1440815438399999e-01 1.8833912290849060e+01 2.1460474957749113e+01 1.6429829232991871e+01 1 1 1
4201 48 1 3.3198802574999998e-02 1.6342166298333058e+01 2.4221646190222618e+01 2.5769706894708182e+01 1 1 0
4272 48 5 2.2977513104000001e-02 2.0200253440533988e+01 2.3430645620930772e+01 2.3551406786083909e+01 1 1 0
4233 48 5 2.6531412109000001e-02 1.8495572231994025e+01 2.2612671741527738e+01 2.5257713282058383e+01 1 1 0
4268 48 5 2.6264765143000000e-02 1.9044073436037678e+01 2.5170007783969133e+01 2.4815804466623540e+01 1 1 0
4229 48 5 3.6606329335999999e-02 1.6717728961956293e+01 2.5201306446899622e+01 2.5370524348776424e+01 1 1 0
1708 20 4 -2.6497516144900002e-01 2.1661936284067785e+01 1.7570577560572218e+01 2.4605010856666055e+01 0 0 1
4203 48 1 -5.2844670757999999e-02 1.8769403055433909e+01 2.3262387168267054e+01 2.6089777934279205e+01 1 1 0
1735 20 5 5.7361720903999998e-02 2.2739732355424110e+01 1.9662297592405007e+01 2.5393379724619386e+01 0 0 1
1702 20 3 2.6217883716500001e-01 2.2724380223240924e+01 1.7195589226516006e+01 2.5131550891261320e+01 0 0 1
4271 48 5 2.2977513104000001e-02 2.1367603509530994e+01 2.3269871142603108e+01 2.4992949304026393e+01 1 1 0
1706 20 4 -2.6497516144900002e-01 2.2972714715522123e+01 2.1545479283312211e+01 2.0849065450446144e+01 0 0 1
8166 92 5 3.6606329335999999e-02 1.7832731334695318e+01 1.6467562723155147e+01 1.8372787371422564e+01 -1 0 1
8169 92 5 2.7003581479000002e-02 1.7177232207391011e+01 1.6052757496269830e+01 1.6159514722698415e+01 -1 0 1
4270 48 5 2.2977513104000001e-02 2.1355665437207051e+01 2.4719404847711239e+01 2.4218446884343706e+01 1 1 0
4202 48 1 -4.4063405291000002e-02 1.7367670031583060e+01 2.3601399799711146e+01 2.6730438530495462e+01 1 1 0
1699 20 2 -3.1440815438399999e-01 2.3098262799704401e+01 2.1024645080281680e+01 2.2979543939281527e+01 0 0 1
4269 48 5 2.6264765143000000e-02 2.0144400697467230e+01 2.4975751866101106e+01 2.6240740890135406e+01 1 1 0
8419 95 5 2.7003581479000002e-02 2.1062604820600939e+01 1.8857045771248295e+01 1.6338742809781174e+01 0 1 1
4232 48 5 2.6531412109000001e-02 1.9342357065589052e+01 2.2759254331854816e+01 2.6822107573250072e+01 1 1 0
621 7 5 2.2977513104000001e-02 2.1026882339354117e+01 2.5454169491845818e+01 1.8220588663252194e+01 0 0 0
618 7 1 -6.5276132121999994e-02 2.1594808012588970e+01 2.6153473774352989e+01 1.8813323877596090e+01 0 0 0
622 7 5 2.2977513104000001e-02 2.0865365698542277e+01 2.6602039698934959e+01 1.9478180097860303e+01 0 0 0
1717 20 1 -6.5276132121999994e-02 1.6911198987772472e+01 1.8272990828936010e+01 2.3330406695994576e+01 0 0 1
619 7 5 2.6264765143000000e-02 2.2147986718598041e+01 2.4964408020401706e+01 2.0475250856328611e+01 0 0 0
8389 95 1 -4.4063405291000002e-02 2.1448893178641889e+01 1.7854245469119885e+01 1.6035340306077231e+01 0 1 1
8132 92 1 -4.4063405291000002e-02 1.6335320094691184e+01 1.6055705922293917e+01 1.6819989545432062e+01 -1 0 1
8417 95 5 3.6606329335999999e-02 1.9500218511898478e+01 1.7055742743003183e+01 1.6229597727918360e+01 0 1 1
1768 20 5 2.2977513104000001e-02 1.7361551946876837e+01 1.7264438009898818e+01 2.3169161670012500e+01 0 0 1
5552 63 1 -5.2844670757999999e-02 1.7674683109363869e+01 2.7174437266570759e+01 1.6536675915509139e+01 1 1 1
1752 20 5 2.7003581479000002e-02 2.0940038659828915e+01 1.6130754877209892e+01 2.7173991595912334e+01 0 0 1
4228 48 5 3.6606329335999999e-02 1.6183408263239386e+01 2.3514952746984481e+01 2.4917665115686631e+01 1 1 0
1718 20 1 3.3198802574999998e-02 2.2784771512484653e+01 1.5983242328985080e+01 2.6018481667516973e+01 0 0 1
8136 92 5 5.7361720903999998e-02 1.5164494960811892e+01 2.2010542179792772e+01 1.7729036815971774e+01 -1 0 1
623 7 5 2.2977513104000001e-02 2.2007798682913730e+01 2.6961127760565535e+01 1.8199730103432966e+01 0 0 0
6580 74 5 2.2977513104000001e-02 1.7081095468337065e+01 1.6195945527880493e+01 2.5618324488573023e+01 1 1 0
6533 74 1 -6.5276132121999994e-02 1.7158842251002056e+01 1.6085081954085659e+01 2.6716193720427611e+01 1 1 0
5596 63 5 2.2977513104000001e-02 1.7440682502337978e+01 2.4680770346959452e+01 2.2541752870524789e+01 1 1 1
5589 63 5 2.6531412109000001e-02 1.6748626622684949e+01 2.6877203793772573e+01 1.6944828046132344e+01 1 1 1
5549 63 1 -6.5276132121999994e-02 1.7549734481634829e+01 2.5088272836585542e+01 2.1562303790947063e+01 1 1 1
5597 63 5 2.2977513104000001e-02 1.8520221903567656e+01 2.5562312652117569e+01 2.1525862588651641e+01 1 1 1
583 7 5 2.6531412109000001e-02 2.3219226543548295e+01 2.3931465681703692e+01 1.8293273012600725e+01 0 0 0
8420 95 5 2.7003581479000002e-02 2.1909752254598725e+01 1.7465285518001519e+01 1.6927194037864414e+01 0 1 1
8383 95 4 -2.6497516144900002e-01 2.1607941842405619e+01 1.6135986913828937e+01 2.0248078122556926e+01 0 1 1
555 7 1 -5.5899438604999997e-02 2.2683725318430007e+01 2.5523272552755177e+01 1.9701348779070532e+01 0 0 0
5598 63 5 2.2977513104000001e-02 1.6704871199998195e+01 2.5873097497056122e+01 2.1470122042277744e+01 1 1 1
4231 48 5 2.7003581479000002e-02 1.6936715425958262e+01 2.2646793820585049e+01 2.7157555348724948e+01 1 1 0
8388 95 1 3.3198802574999998e-02 2.0274169795857475e+01 1.7014764304340634e+01 1.5484265238196350e+01 0 1 1
8167 92 5 3.6606329335999999e-02 1.6079585602295651e+01 1.6577466916064001e+01 1.8932399751318009e+01 -1 0 1
4230 48 5 2.7003581479000002e-02 1.7548829861498426e+01 2.4378304572888247e+01 2.7462199752889084e+01 1 1 0
6579 74 5 2.2977513104000001e-02 1.8218842643940739e+01 1.6000309853685234e+01 2.6939336074109693e+01 1 1 0
8376 95 3 2.6217883716500001e-01 2.0564951661065304e+01 1.5654678535066761e+01 1.5204824381628921e+01 0 1 1
5556 63 5 5.7361720903999998e-02 1.6315600623706064e+01 2.0548659319132955e+01 1.5503136355220951e+01 1 1 1
8140 92 5 5.7361720903999998e-02 1.5779288099023564e+01 2.0200276610892971e+01 1.9398139737911269e+01 -1 0 1
620 7 5 2.6264765143000000e-02 2.3221125481818326e+01 2.6315432975169387e+01 2.0260448874328567e+01 0 0 0
8377 95 3 2.6217883716500001e-01 2.2612623089863330e+01 1.5478854906769497e+01 1.9970808322872045e+01 0 1 1
75 1 5 2.2977513104000001e-02 1.5428305461004514e+01 2.7425929431381768e+01 2.2958510835739546e+01 0 0 -1
1767 20 5 2.2977513104000001e-02 1.6393563830389645e+01 1.8546652912314112e+01 2.2378340891624344e+01 0 0 1
5591 63 5 2.6264765143000000e-02 1.8780092816805816e+01 2.6504604132340663e+01 1.8316805345137524e+01 1 1 1
1750 20 5 3.6606329335999999e-02 2.3345043782503623e+01 1.5251489239850862e+01 2.5459230757727482e+01 0 0 1
1766 20 5 2.2977513104000001e-02 1.6252249588600016e+01 1.8209934920575748e+01 2.4194295884190048e+01 0 0 1
5592 63 5 2.6264765143000000e-02 1.9781806437380581e+01 2.7376746502628613e+01 1.7241021726709594e+01 1 1 1
1751 20 5 3.6606329335999999e-02 2.3321072043478480e+01 1.6195681518471467e+01 2.6870249018366529e+01 0 0 1
8423 95 5 2.6264765143000000e-02 2.3152572451569746e+01 2.0136312592881715e+01 1.5808775452434407e+01 0 1 1
5560 63 5 5.7361720903999998e-02 1.6712633147398137e+01 2.2971396394597875e+01 1.5174497899442853e+01 1 1 1
5587 63 5 2.7003581479000002e-02 1.8289925806824318e+01 2.5319997089883749e+01 1.5804564314708260e+01 1 1 1
8108 92 2 -3.1440815438399999e-01 1.5509204099986544e+01 1.8812319607261518e+01 1.7823767955692340e+01 -1 0 1
5553 63 1 -5.5899438604999997e-02 1.8741191476988913e+01 2.7315105892777517e+01 1.7642619985676173e+01 1 1 1
6572 74 5 2.2977513104000001e-02 1.5927715316141043e+01 1.5269690102414112e+01 2.2511707520855659e+01 1 1 0
1719 20 1 -4.4063405291000002e-02 2.1404755416292129e+01 1.5356400273042562e+01 2.6525229105983740e+01 0 0 1
8168 92 5 2.7003581479000002e-02 1.5530822232042283e+01 1.6567973602216263e+01 1.6213271933446816e+01 -1 0 1
5551 63 1 -4.4063405291000002e-02 1.8074588837365745e+01 2.6242272273399323e+01 1.5318431344053563e+01 1 1 1
1753 20 5 2.7003581479000002e-02 2.0767476350708776e+01 1.5122463477528452e+01 2.5675482734915231e+01 0 0 1
6578 74 5 2.2977513104000001e-02 1.6799760268632507e+01 1.7005302669879057e+01 2.7241269637689001e+01 1 1 0
5920 67 5 3.6606329335999999e-02 2.2716801200136516e+01 2.7474471787106744e+01 2.2323129881270404e+01 0 0 1
6308 71 5 2.2977513104000001e-02 1.7104002808059121e+01 2.6909450183271446e+01 2.7453665034330278e+01 0 2 0
1733 20 5 5.7361720903999998e-02 2.3655105164029830e+01 2.2111850072038902e+01 2.5289070538644125e+01 0 0 1
1264 15 1 3.3198802574999998e-02 2.8464091467133521e+01 1.5178065221542822e+01 2.2485389882757907e+01 1 0 0
8441 95 5 2.2977513104000001e-02 2.5505859100553806e+01 2.0201632664509560e+01 1.5203357538072616e+01 0 1 1
920 11 1 -5.5899438604999997e-02 2.9618720083988883e+01 2.0863207969027879e+01 1.6226843892155927e+01 0 0 1
1331 15 5 2.6264765143000000e-02 2.9889055584829464e+01 1.5553976152293714e+01 1.9952491531008075e+01 1 0 0
554 7 1 -5.2844670757999999e-02 2.3695435643536705e+01 2.4638828677231594e+01 1.8966568901866591e+01 0 0 0
584 7 5 2.6531412109000001e-02 2.4169885797570103e+01 2.3982444929768938e+01 1.9739530016783874e+01 0 0 0
970 11 5 2.2977513104000001e-02 2.8831938796295319e+01 2.2773196173554002e+01 1.5517321375826677e+01 0 0 1
8425 95 5 3.6606329335999999e-02 2.3750766805696383e+01 1.6017168570037079e+01 2.1691564331526113e+01 0 1 1
919 11 1 -5.2844670757999999e-02 2.8439264456582450e+01 2.0001232853556193e+01 1.5651285335685671e+01 0 0 1
1296 15 5 2.6531412109000001e-02 3.1273713556881638e+01 1.5527753659244897e+01 2.2089631677602426e+01 1 0 0
1288 15 5 5.7361720903999998e-02 2.9501467137660509e+01 1.5566350223484990e+01 2.6905227041335394e+01 1 0 0
6307 71 5 2.2977513104000001e-02 2.8604478761950045e+01 2.6758536934360563e+01 1.9766534029707955e+01 0 2 0
1696 20 1 6.9063699647000001e-02 2.3801926109190219e+01 1.9301655982657564e+01 2.5438485686408256e+01 0 0 1
1734 20 5 5.7361720903999998e-02 2.3975578178389608e+01 1.9143380289978445e+01 2.6471852097823536e+01 0 0 1
1697 20 2 -3.1440815438399999e-01 2.3823205237545711e+01 1.7966752253724302e+01 2.4912360368393230e+01 0 0 1
8424 95 5 2.6264765143000000e-02 2.3872572710985125e+01 1.8787835783944615e+01 1.6702672099622621e+01 0 1 1
6254 71 1 -5.2844670757999999e-02 2.7115044128249906e+01 2.6610200492418791e+01 2.2066511318699217e+01 0 2 0
1262 15 4 -2.6497516144900002e-01 3.1274025856785020e+01 1.7337431393967446e+01 2.6929585570308959e+01 1 0 0
8428 95 5 2.7003581479000002e-02 2.4895511286413758e+01 1.5969419948400258e+01 1.8846544524916233e+01 0 1 1
6306 71 5 2.2977513104000001e-02 3.0090600673508000e+01 2.5861120368975328e+01 2.0214314520457485e+01 0 2 0
955 11 5 2.6264765143000000e-02 2.9957494600166534e+01 2.0399959282664454e+01 1.7096116047663539e+01 0 0 1
8394 95 1 -4.4063405291000002e-02 2.5053140235333608e+01 1.6139996099390213e+01 1.9906798108802676e+01 0 1 1
548 7 4 -2.6497516144900002e-01 2.7604711903075348e+01 2.5959162176612871e+01 1.7303068048938616e+01 0 0 0
580 7 5 3.6606329335999999e-02 2.6349923469299284e+01 2.3938195429743821e+01 1.8410151693496566e+01 0 0 0
1693 20 1 6.9063699647000001e-02 2.4383925595344493e+01 2.0374507584492761e+01 2.3166224836303478e+01 0 0 1
582 7 5 2.7003581479000002e-02 2.4373053489874948e+01 2.6058432503027760e+01 1.7418461012236566e+01 0 0 0
917 11 1 3.3198802574999998e-02 2.9597018880222230e+01 1.7777109465211041e+01 1.6575149761127292e+01 0 0 1
949 11 5 3.6606329335999999e-02 2.9061071136502321e+01 1.7957957681226706e+01 1.7529042571636467e+01 0 0 1
581 7 5 2.7003581479000002e-02 2.5321252618689783e+01 2.6055680914950273e+01 1.8970489184962926e+01 0 0 0
1294 15 5 2.7003581479000002e-02 2.9579190266631851e+01 1.6516302143129924e+01 2.3730697327391042e+01 1 0 0
950 11 5 3.6606329335999999e-02 3.0627918769598896e+01 1.8200048588513106e+01 1.6719636437793643e+01 0 0 1
901 11 3 2.6217883716500001e-01 2.9794606215294188e+01 1.6381860626653278e+01 1.6369702457089140e+01 0 0 1
8430 95 5 2.6531412109000001e-02 2.4269939322172615e+01 1.8154520514035500e+01 1.9699724358196281e+01 0 1 1
1729 20 5 5.7361720903999998e-02 2.4447000592194517e+01 1.9411582364779903e+01 2.2757603503504697e+01 0 0 1
553 7 1 -4.4063405291000002e-02 2.4795928998462195e+01 2.5433071509552342e+01 1.8208877595648438e+01 0 0 0
6281 71 5 3.6606329335999999e-02 2.4989957861915954e+01 2.4830551636748687e+01 2.4182709425089641e+01 0 2 0
1695 20 1 6.9063699647000001e-02 2.4669228860472487e+01 2.1691656866241289e+01 2.5402423153704795e+01 0 0 1
8395 95 1 -5.2844670757999999e-02 2.5231981138256852e+01 1.7670034127569679e+01 2.0071034135697886e+01 0 1 1
1728 20 5 5.7361720903999998e-02 2.5097976317666784e+01 2.0986146980094837e+01 2.2622330789886799e+01 0 0 1
1692 20 1 6.6229863866999999e-02 2.4746919507660252e+01 2.0320903812172066e+01 2.4679233648844320e+01 0 0 1
1267 15 1 -5.5899438604999997e-02 3.0475499463109710e+01 1.6438731404303983e+01 2.0272316560112642e+01 1 0 0
1732 20 5 5.7361720903999998e-02 2.5413289657814136e+01 2.2373796590845981e+01 2.4968948522797785e+01 0 0 1
8445 95 5 2.2977513104000001e-02 2.6635469385989381e+01 2.0007087702126356e+01 2.0475021165286687e+01 0 1 1
1731 20 5 5.7361720903999998e-02 2.6158278639955192e+01 1.8693438661738863e+01 2.4332416110441002e+01 0 0 1
8396 95 1 -5.5899438604999997e-02 2.6426767732702366e+01 1.8288133418653743e+01 1.9243621508764409e+01 0 1 1
1705 20 4 -2.6497516144900002e-01 2.8842916014963514e+01 1.9280076110921772e+01 2.4450562383751532e+01 0 0 1
8446 95 5 2.2977513104000001e-02 2.7529637403989931e+01 2.0126206441537022e+01 1.9063898846482711e+01 0 1 1
8444 95 5 2.2977513104000001e-02 2.5647094241029357e+01 2.0352831865843974e+01 1.9126408430551269e+01 0 1 1
8397 95 1 -6.5276132121999994e-02 2.6555360339387256e+01 1.9835044694725809e+01 1.9452334220813270e+01 0 1 1
1736 20 5 3.6606329335999999e-02 2.9165286378585094e+01 2.2401959413434149e+01 2.3999530913090688e+01 0 0 1
1703 20 3 2.6217883716500001e-01 2.8430942242329760e+01 2.0418154360857191e+01 2.4228624118402678e+01 0 0 1
1739 20 5 2.7003581479000002e-02 2.8990977816791162e+01 2.1753423743171744e+01 2.1589872246899766e+01 0 0 1
1694 20 1 6.9063699647000001e-02 2.6199257907773152e+01 1.9791292508341815e+01 2.4703802126337123e+01 0 0 1
1730 20 5 5.7361720903999998e-02 2.6550504710198588e+01 1.9755148108591744e+01 2.5709215801927783e+01 0 0 1
1698 20 2 -3.1440815438399999e-01 2.7117587162504144e+01 2.0681635273506465e+01 2.4050007199051855e+01 0 0 1
1710 20 1 -4.4063405291000002e-02 2.9806116108140845e+01 2.1352668631071548e+01 2.2165210533444814e+01 0 0 1
1738 20 5 2.7003581479000002e-02 2.9861028673957399e+01 2.0300757211094187e+01 2.1801932323613642e+01 0 0 1
1709 20 1 3.3198802574999998e-02 2.9440962776619848e+01 2.1362817113295012e+01 2.3747029789944570e+01 0 0 1
1737 20 5 3.6606329335999999e-02 3.0324701556433396e+01 2.1185441079837140e+01 2.4319397001497375e+01 0 0 1
1286 15 5 5.7361720903999998e-02 2.7247365711575007e+01 1.7050819671968505e+01 2.5338712298607522e+01 1 0 0
6240 71 3 2.6217883716500001e-01 2.6885417780023122e+01 2.5534875393182347e+01 2.4942221760303738e+01 0 2 0
6238 71 2 -3.1440815438399999e-01 2.6232667930389599e+01 2.6312600095142066e+01 2.5822200166547823e+01 0 2 0
6252 71 1 3.3198802574999998e-02 2.6019679701687082e+01 2.4981404374028529e+01 2.3838516384376689e+01 0 2 0
1740 20 5 2.6531412109000001e-02 3.0981798745493997e+01 2.3164199222125639e+01 2.2172684107003725e+01 0 0 1
6282 71 5 3.6606329335999999e-02 2.6469631624477174e+01 2.4010776752151628e+01 2.3527472887575147e+01 0 2 0
6245 71 4 -2.6497516144900002e-01 2.8043378153087922e+01 2.5180435992185302e+01 2.5067097305444101e+01 0 2 0
907 11 4 -2.6497516144900002e-01 2.9367479194480840e+01 1.5603362671524319e+01 1.7229030967588596e+01 0 0 1
1293 15 5 2.7003581479000002e-02 2.8857309469699107e+01 1.7391350486050865e+01 2.2510422907297606e+01 1 0 0
1332 15 5 2.6264765143000000e-02 2.9846815596652682e+01 1.7264787036253786e+01 2.0083986627100820e+01 1 0 0
8429 95 5 2.6531412109000001e-02 2.5385512413773952e+01 1.7869898161337602e+01 2.1117899001208581e+01 0 1 1
8431 95 5 2.6264765143000000e-02 2.7358204145565068e+01 1.7727199353438735e+01 1.9475657822645648e+01 0 1 1
3881 44 5 2.7003581479000002e-02 3.1135740042136348e+01 2.4674419770300943e+01 2.4695403527460936e+01 1 1 0
8432 95 5 2.6264765143000000e-02 2.6167342698407161e+01 1.8153433722552737e+01 1.8132853623936764e+01 0 1 1
1711 20 1 -5.2844670757999999e-02 3.1107620549213099e+01 2.2161656931334726e+01 2.1867927318295791e+01 0 0 1
1712 20 1 -5.5899438604999997e-02 3.1244079984091915e+01 2.2147731044605880e+01 2.0302354402319256e+01 0 0 1
1700 20 2 -3.1440815438399999e-01 2.4997170770227953e+01 2.1571427756766234e+01 2.6760326841899506e+01 0 0 1
1777 20 5 2.6264765143000000e-02 3.0376251403671173e+01 2.2543097088784837e+01 1.9784755753565708e+01 0 0 1
1266 15 1 -5.2844670757999999e-02 3.0668867436883296e+01 1.6443417178041862e+01 2.1836211697707625e+01 1 0 0
1249 15 1 6.9063699647000001e-02 2.7028088463373834e+01 1.6051899022728698e+01 2.5677226559967110e+01 1 0 0
1265 15 1 -4.4063405291000002e-02 2.9354273066219363e+01 1.6431625181677184e+01 2.2673395164471852e+01 1 0 0
6255 71 1 -5.5899438604999997e-02 2.8285974130753075e+01 2.5731122253824253e+01 2.1550988278476868e+01 0 2 0
6287 71 5 2.6264765143000000e-02 2.8808990023880487e+01 2.5238783629649060e+01 2.2431131058665308e+01 0 2 0
896 11 2 -3.1440815438399999e-01 3.0678529305761174e+01 1.6009414921880762e+01 1.5355644863016746e+01 0 0 1
1776 20 5 2.6264765143000000e-02 3.1273741727113872e+01 2.1113888930011271e+01 1.9892102176314399e+01 0 0 1
552 7 1 3.3198802574999998e-02 2.5852272659629762e+01 2.4476481158392211e+01 1.7568775391331283e+01 0 0 0
579 7 5 3.6606329335999999e-02 2.5319633599476841e+01 2.3774611112976423e+01 1.6950178146459340e+01 0 0 0
1285 15 5 5.7361720903999998e-02 2.5981058459289699e+01 1.5973528407346675e+01 2.5523497619444989e+01 1 0 0
1333 15 5 2.2977513104000001e-02 3.1591583823512977e+01 1.6540403938546117e+01 1.8475960301321631e+01 1 0 0
6283 71 5 2.7003581479000002e-02 2.5575831077729752e+01 2.5194030986196040e+01 2.1661489277284261e+01 0 2 0
6253 71 1 -4.4063405291000002e-02 2.5881488515947307e+01 2.5834039181283156e+01 2.2534363696751065e+01 0 2 0
3885 44 5 2.6264765143000000e-02 3.1086492216287525e+01 2.6614647247109833e+01 2.3139191725306809e+01 1 1 0
546 7 3 2.6217883716500001e-01 2.6869331280624735e+01 2.5165118062220312e+01 1.6752633629956755e+01 0 0 0
8391 95 1 -5.5899438604999997e-02 2.3664421846073772e+01 1.9132793716549180e+01 1.5679211448106050e+01 0 1 1
6288 71 5 2.6264765143000000e-02 2.7968700537053891e+01 2.4855972758027054e+01 2.1030924909265853e+01 0 2 0
6268 71 5 5.7361720903999998e-02 2.7832285874792333e+01 2.7402997415586988e+01 2.6489495549571103e+01 0 2 0
6285 71 5 2.6531412109000001e-02 2.7519695033245448e+01 2.7260256795106688e+01 2.2793546494644477e+01 0 2 0
1247 15 1 6.6229863866999999e-02 2.7360620860051561e+01 1.5898748556818461e+01 2.7232543122547074e+01 1 0 0
1255 15 2 -3.1440815438399999e-01 2.9111133790559052e+01 1.7591833208481386e+01 2.7127471456816068e+01 1 0 0
6256 71 1 -6.5276132121999994e-02 2.9249716114114001e+01 2.6467061681971238e+01 2.0596658049293815e+01 0 2 0
918 11 1 -4.4063405291000002e-02 2.8902875187093173e+01 1.8543884029172837e+01 1.5416013936957826e+01 0 0 1
953 11 5 2.6531412109000001e-02 2.7586636077427421e+01 1.9944017513101940e+01 1.6379754679681689e+01 0 0 1
1707 20 4 -2.6497516144900002e-01 2.4214138609283395e+01 2.3636116335646733e+01 2.7326233866186708e+01 0 0 1
2013 23 5 2.6531412109000001e-02 3.0692647684936574e+01 2.7391269605207107e+01 1.6980664732577821e+01 0 0 0
6305 71 5 2.2977513104000001e-02 2.9727881215551285e+01 2.7343827389567519e+01 2.1080716719535818e+01 0 2 0
6284 71 5 2.7003581479000002e-02 2.5083000044343592e+01 2.6600572370929065e+01 2.2612689647921691e+01 0 2 0
8393 95 1 3.3198802574999998e-02 2.3872295099627003e+01 1.5493366886782415e+01 2.0747545549647310e+01 0 1 1
968 11 5 2.2977513104000001e-02 2.8229086370089234e+01 2.2318441169784869e+01 1.7141094330839877e+01 0 0 1
1314 15 5 3.6606329335999999e-02 3.0213349067522650e+01 2.0257041845874809e+01 2.7391351435637773e+01 1 0 0
574 7 5 5.7361720903999998e-02 2.5144873094271794e+01 2.6191635746039470e+01 1.5348737174712442e+01 0 0 0
921 11 1 -6.5276132121999994e-02 2.9095722031611658e+01 2.2331612092225569e+01 1.6483751192682295e+01 0 0 1
1295 15 5 2.6531412109000001e-02 3.1362985538528445e+01 1.7308009349536622e+01 2.2081204914853924e+01 1 0 0
6286 71 5 2.6531412109000001e-02 2.6830513800383606e+01 2.7213973336741581e+01 2.1208748440960751e+01 0 2 0
956 11 5 2.6264765143000000e-02 3.0433890109778694e+01 2.0918224168916996e+01 1.5498588613494466e+01 0 0 1
541 7 2 -3.1440815438399999e-01 2.6908705279408046e+01 2.5102749790646961e+01 1.5406813041658694e+01 0 0 0
1259 15 3 2.6217883716500001e-01 3.0365769066267859e+01 1.8031936589916306e+01 2.7295407867276090e+01 1 0 0
8427 95 5 2.7003581479000002e-02 2.6022078686488484e+01 1.5581697293473514e+01 2.0206304663993780e+01 0 1 1
969 11 5 2.2977513104000001e-02 2.9902908355466195e+01 2.2956822406180105e+01 1.6852283341722295e+01 0 0 1
1283 15 5 5.7361720903999998e-02 2.6601565568623300e+01 1.7996164402119224e+01 2.7490821080186628e+01 1 0 0
1250 15 1 6.9063699647000001e-02 2.8851575940412008e+01 1.6217656875815624e+01 2.7488122765078579e+01 1 0 0
1881 22 3 2.6217883716500001e-01 3.5035861468193247e+01 1.5466647909259773e+01 2.6044221643718110e+01 0 1 -1
7907 89 5 2.2977513104000001e-02 3.7750750637153644e+01 1.6024137560982634e+01 1.5131057404689534e+01 1 1 0
1335 15 5 2.2977513104000001e-02 3.2142299718032319e+01 1.5335297304850473e+01 1.9585451408998431e+01 1 0 0
2036 23 5 2.2977513104000001e-02 3.4123430772117374e+01 2.4595919543496592e+01 1.5935681750201722e+01 0 0 0
3462 39 5 2.2977513104000001e-02 3.5960264798911581e+01 2.4703827681528814e+01 2.6848118583193994e+01 0 2 1
3896 44 5 2.7003581479000002e-02 3.5158500206105700e+01 1.5874162274108230e+01 2.2758894444857589e+01 1 1 0
3861 44 1 -5.2844670757999999e-02 3.6377847392511114e+01 1.5833935986326674e+01 2.0999788971482729e+01 1 1 0
10235 115 5 2.2977513104000001e-02 3.3754032125422704e+01 1.7816514466698710e+01 1.5527765652238253e+01 0 0 2
7858 89 1 -6.5276132121999994e-02 3.7386254768338517e+01 1.5400801050204100e+01 1.5921064073731884e+01 1 1 0
1741 20 5 2.6531412109000001e-02 3.1998328510975668e+01 2.1720105448662231e+01 2.2321887598121908e+01 0 0 1
10173 115 1 3.3198802574999998e-02 3.8983701985073687e+01 2.6745849969363366e+01 1.5299426944109001e+01 0 0 2
3852 44 1 -5.5899438604999997e-02 3.2115144949934191e+01 2.6917830600513263e+01 2.3400882087957335e+01 1 1 0
3884 44 5 2.6264765143000000e-02 3.2846479310795971e+01 2.6513173498522107e+01 2.2683000334138875e+01 1 1 0
3842 44 4 -2.6497516144900002e-01 3.1877134927607514e+01 2.2468561353752143e+01 2.7438744363110565e+01 1 1 0
1914 22 5 3.6606329335999999e-02 3.3345206786891552e+01 1.6076106900761765e+01 2.5258228868789704e+01 0 1 -1
3836 44 2 -3.1440815438399999e-01 3.4393617235354917e+01 1.8301560519873810e+01 2.4101199141156272e+01 1 1 0
7908 89 5 2.2977513104000001e-02 3.6422939629586033e+01 1.5720031863196343e+01 1.6308381602100646e+01 1 1 0
3898 44 5 2.6531412109000001e-02 3.7378232003502873e+01 1.6213241967900732e+01 2.1346469955606622e+01 1 1 0
10206 115 5 3.6606329335999999e-02 3.8074039223220169e+01 2.7170078018184778e+01 1.5724210854406344e+01 0 0 2
10149 115 1 6.9063699647000001e-02 3.9970400341048787e+01 2.3233581696775815e+01 1.9129408326892118e+01 0 0 2
2024 23 5 2.6264765143000000e-02 3.6293062126306658e+01 2.4994141881964495e+01 1.5574716003663912e+01 0 0 0
3879 44 5 3.6606329335999999e-02 3.2170550232013582e+01 2.4871151823930475e+01 2.7118700604233680e+01 1 1 0
10231 115 5 2.6264765143000000e-02 3.5870175964287426e+01 1.8240487733232570e+01 1.6283200776080950e+01 0 0 2
3845 44 1 3.3198802574999998e-02 3.9546640154774408e+01 2.0994560398251281e+01 2.5633660213473469e+01 1 1 0
2019 23 5 2.7003581479000002e-02 3.5432534375775347e+01 2.7320459199593500e+01 1.5628823946451373e+01 0 0 0
3828 44 1 6.6229863866999999e-02 3.5009310307244178e+01 2.0456428038101368e+01 2.5199282433855373e+01 1 1 0
1780 20 5 2.2977513104000001e-02 3.2466805993554630e+01 2.3930726788054301e+01 2.0198401639845677e+01 0 0 1
1330 15 1 -6.5276132121999994e-02 3.1764589352847025e+01 1.6406442105622833e+01 1.9515298988168073e+01 1 0 0
1775 20 1 -6.5276132121999994e-02 3.2504624290681562e+01 2.2908674524594304e+01 1.9875337065340915e+01 0 0 1
3895 44 5 3.6606329335999999e-02 3.6141666569753575e+01 1.8194965924413712e+01 2.2416332289856044e+01 1 1 0
3883 44 5 2.6531412109000001e-02 3.1704561515842563e+01 2.6997535797470182e+01 2.5603085302432575e+01 1 1 0
1779 20 5 2.2977513104000001e-02 3.2591951792519737e+01 2.2925609014221891e+01 1.8820720917522149e+01 0 0 1
1778 20 5 2.2977513104000001e-02 3.3408770909185414e+01 2.2466295495180699e+01 2.0263129970111596e+01 0 0 1
3839 44 3 2.6217883716500001e-01 3.8614616845170133e+01 2.0215547358981450e+01 2.6368275811096090e+01 1 1 0
3447 39 5 2.6264765143000000e-02 3.8578705781501498e+01 2.3860015940054673e+01 2.6943912367536370e+01 0 2 1
3461 39 5 2.2977513104000001e-02 3.7148935950533883e+01 2.5870366276415567e+01 2.7222697572775793e+01 0 2 1
3856 44 1 -5.2844670757999999e-02 3.6073680776522231e+01 2.6365814240508300e+01 2.1360582748669422e+01 1 1 0
3855 44 1 -4.4063405291000002e-02 3.6786590427695394e+01 2.5018296581159696e+01 2.1694938537509238e+01 1 1 0
10230 115 1 -6.5276132121999994e-02 3.3906082920890881e+01 1.8779378155754674e+01 1.5999760991248364e+01 0 0 2