LAMMPS data file via write_data, version 22 Aug 2018, timestep = 4000000

11125 atoms
5 atom types
11000 bonds
6 bond types
20750 angles
11 angle types
28000 dihedrals
15 dihedral types
500 impropers
1 improper types

1.4723444968596471e+01 6.5276555031153947e+01 xlo xhi
1.4723444968596471e+01 6.5276555031153947e+01 ylo yhi
1.4723444968596471e+01 6.5276555031153947e+01 zlo zhi

Masses

1 12.0107
2 15.9994
3 12.0107
4 15.9994
5 1.00794

Pair Coeffs # lj/cut/coul/long

1 0.0951 3.47299
2 0.0957 3.03315
3 0.0951 3.47299
4 0.0957 3.03315
5 0.0152 2.84642

Bond Coeffs # harmonic

1 350 1.53
2 350 1.42
3 350 1.32
4 700 1.22
5 350 1.43
6 350 1.09

Angle Coeffs # harmonic

1 50 109.47
2 50 109.47
3 50 109.47
4 50 109.47
5 50 109.47
6 50 104.51
7 50 120
8 50 120
9 50 120
10 50 109.47
11 50 109.47

Dihedral Coeffs # harmonic

1 0.1111 1 3
2 0.1111 1 3
3 0.3333 1 3
4 0.3333 1 3
5 0.5 -1 2
6 0.5 -1 2
7 0.1667 1 3
8 0.0833 -1 6
9 0.1667 1 3
10 0.0833 -1 6
11 0.1111 1 3
12 0.1111 1 3
13 0.1111 1 3
14 0.1111 1 3
15 0.1111 1 3

Improper Coeffs # harmonic

1 20 0

Atoms # full

1442 17 1 3.3198802574999998e-02 1.7082431386941469e+01 1.6202001010560114e+01 1.7018077724781850e+01 1 2 0
1443 17 1 -4.4063405291000002e-02 1.8358996403135823e+01 1.7049484430484785e+01 1.6709764980747398e+01 1 2 0
5435 62 2 -3.1440815438399999e-01 2.1497377750080201e+01 1.9416422122974936e+01 2.4332872222987390e+01 0 1 0
6620 75 1 -5.2844670757999999e-02 2.0929689900777596e+01 1.9451200979957086e+01 2.0037432680062437e+01 0 0 1
6619 75 1 -4.4063405291000002e-02 2.2318397730535779e+01 1.9324989005863312e+01 2.0646343815562446e+01 0 0 1
1469 17 5 3.6606329335999999e-02 1.7435037450955182e+01 1.5418171428355874e+01 1.7765832666432914e+01 1 2 0
6658 75 5 2.6531412109000001e-02 2.0947856907697656e+01 2.0128120437678312e+01 1.9170310019341734e+01 0 0 1
6656 75 5 2.7003581479000002e-02 2.2464231179077331e+01 1.9952760952244780e+01 2.1526995681133538e+01 0 0 1
6655 75 5 2.7003581479000002e-02 2.2438441304466348e+01 1.8271920646189109e+01 2.0965443435089846e+01 0 0 1
6657 75 5 2.6531412109000001e-02 2.0533704242961047e+01 1.8536409212912602e+01 1.9622877273143473e+01 0 0 1
1470 17 5 3.6606329335999999e-02 1.6719200338477787e+01 1.5668730750395456e+01 1.6154593466000438e+01 1 2 0
1472 17 5 2.7003581479000002e-02 1.8708398642107191e+01 1.7529483061636117e+01 1.7604625027863239e+01 1 2 0
5433 62 1 6.9063699647000001e-02 2.1209982789612653e+01 1.6469057905370065e+01 2.3933851204487951e+01 0 1 0
5471 62 5 5.7361720903999998e-02 2.0401237646932543e+01 1.7209580077770724e+01 2.3645728227723151e+01 0 1 0
6621 75 1 -5.5899438604999997e-02 1.9886602432076174e+01 1.9879667213278257e+01 2.1062458045381902e+01 0 0 1
6659 75 5 2.6264765143000000e-02 1.9858207315260103e+01 1.8966456036462191e+01 2.1723003291613391e+01 0 0 1
6660 75 5 2.6264765143000000e-02 2.0259572667114188e+01 2.0716402424041604e+01 2.1667453969749879e+01 0 0 1
5456 62 1 3.3198802574999998e-02 2.0967364434364761e+01 2.1695607653569265e+01 2.4727157461113514e+01 0 1 0
6668 75 5 2.2977513104000001e-02 1.7865633942600532e+01 2.0511334595491469e+01 2.1145897333890176e+01 0 0 1
6622 75 1 -6.5276132121999994e-02 1.8591905645995077e+01 2.0401134593623794e+01 2.0377104705803482e+01 0 0 1
6667 75 5 2.2977513104000001e-02 1.8224063806114842e+01 1.9673083101944108e+01 1.9598262093885943e+01 0 0 1
6669 75 5 2.2977513104000001e-02 1.8754674686889604e+01 2.1416131866371735e+01 1.9889420815481412e+01 0 0 1
1436 17 3 2.6217883716500001e-01 1.5935665231587398e+01 1.6967070699157830e+01 1.7617944532759164e+01 1 2 0
5442 62 3 2.6217883716500001e-01 2.1570116886070338e+01 1.5488818308728501e+01 2.1835246547856737e+01 0 1 0
5489 62 5 3.6606329335999999e-02 2.0011018482834483e+01 2.1471959821812451e+01 2.4187804543224772e+01 0 1 0
5440 62 3 2.6217883716500001e-01 2.1858764407288376e+01 2.0690233193616589e+01 2.4192470901620631e+01 0 1 0
5430 62 1 6.6229863866999999e-02 2.2141693704918897e+01 1.7012579315792998e+01 2.5088249835080298e+01 0 1 0
5438 62 2 -3.1440815438399999e-01 2.2071180049422601e+01 1.6319489093249707e+01 2.2827260696569994e+01 0 1 0
3163 36 5 2.7003581479000002e-02 1.6129048982488445e+01 1.7247333466363365e+01 2.5742033378443274e+01 0 1 0
1438 17 4 -2.6497516144900002e-01 1.6068979514696409e+01 1.8049625592307240e+01 1.8155563908082243e+01 1 2 0
1509 17 5 2.6264765143000000e-02 2.1061163074678873e+01 1.6025527878794914e+01 1.7325859800949683e+01 1 2 0
5431 62 1 6.9063699647000001e-02 2.1303260495060226e+01 1.7021797525031133e+01 2.6417411465223672e+01 0 1 0
5467 62 5 5.7361720903999998e-02 2.0418808647704267e+01 1.7541425094761127e+01 2.6268434021241816e+01 0 1 0
4201 48 1 3.3198802574999998e-02 2.2593594993902112e+01 1.9704961114368949e+01 1.5203581703794521e+01 1 1 0
1445 17 1 -5.5899438604999997e-02 2.0419935084349461e+01 1.5365843696595784e+01 1.6784204060589929e+01 1 2 0
3202 36 5 2.2977513104000001e-02 1.5836869495740883e+01 1.8433187296734268e+01 2.2459968848806387e+01 0 1 0
5446 62 4 -2.6497516144900002e-01 2.2939144835166914e+01 2.0987761156838864e+01 2.3739019470894398e+01 0 1 0
5434 62 1 6.9063699647000001e-02 2.2589808237829832e+01 1.8470727879905620e+01 2.4629431905291245e+01 0 1 0
3134 36 1 -4.4063405291000002e-02 1.5385100550818207e+01 1.6762081787434450e+01 2.5084664765519385e+01 0 1 0
6618 75 1 3.3198802574999998e-02 2.3382049947578146e+01 1.9658471535260347e+01 1.9499975712871816e+01 0 0 1
6654 75 5 3.6606329335999999e-02 2.3188404302611808e+01 1.9075876533282248e+01 1.8580488654661739e+01 0 0 1
1444 17 1 -5.2844670757999999e-02 1.9413908293744036e+01 1.6277618771051543e+01 1.5899643104901616e+01 1 2 0
6199 70 5 2.6264765143000000e-02 2.9678879545557404e+01 2.2709385396286013e+01 1.5008685127746302e+01 1 0 1
3200 36 5 2.6264765143000000e-02 1.7526047982271855e+01 1.7308286961937149e+01 2.3616211604438416e+01 0 1 0
3199 36 1 -6.5276132121999994e-02 1.6191659481410262e+01 1.7527808227179833e+01 2.1990549266464548e+01 0 1 0
3135 36 1 -5.2844670757999999e-02 1.6043868823735306e+01 1.5884995815144912e+01 2.3916225047073667e+01 0 1 0
1431 17 2 -3.1440815438399999e-01 1.4841145656983679e+01 1.6232425438820812e+01 1.7971965404235526e+01 1 2 0
4228 48 5 3.6606329335999999e-02 2.2268040369873866e+01 1.9179314973762878e+01 1.6105708886961743e+01 1 1 0
5437 62 2 -3.1440815438399999e-01 2.1185079340486265e+01 1.5658785593928750e+01 2.6942235284508158e+01 0 1 0
1474 17 5 2.6531412109000001e-02 1.9985210174316855e+01 1.7032843427368800e+01 1.5342963671399884e+01 1 2 0
5445 62 4 -2.6497516144900002e-01 2.0457552794978120e+01 1.5544826052163609e+01 2.1377283043583439e+01 0 1 0
5464 62 1 -5.5899438604999997e-02 2.4597752665300472e+01 1.4896054509375139e+01 1.7823385328798167e+01 0 1 0
3204 36 5 2.2977513104000001e-02 1.5294370368137001e+01 1.7026009056909043e+01 2.1533966529562843e+01 0 1 0
1471 17 5 2.7003581479000002e-02 1.8013864866615890e+01 1.7866056411293755e+01 1.6032022448592738e+01 1 2 0
3136 36 1 -5.5899438604999997e-02 1.6964532991384139e+01 1.6679574062981928e+01 2.2998518685101445e+01 0 1 0
5470 62 5 5.7361720903999998e-02 2.0707547698315281e+01 1.5519376061420147e+01 2.4163480578175104e+01 0 1 0
3203 36 5 2.2977513104000001e-02 1.6816932792101966e+01 1.7925404313737467e+01 2.1216306659493686e+01 0 1 0
6167 70 1 -6.5276132121999994e-02 3.0840115439459439e+01 2.0854089304809111e+01 1.4831495235535080e+01 1 0 1
5488 62 5 3.6606329335999999e-02 2.1297631459852230e+01 2.2693562209124181e+01 2.4409802201741513e+01 0 1 0
5472 62 5 5.7361720903999998e-02 2.3221856839547577e+01 1.8869611494435667e+01 2.5457912844517068e+01 0 1 0
6611 75 1 -5.5899438604999997e-02 3.1048155577681815e+01 1.5048464088079388e+01 1.9275237082001016e+01 0 0 1
4249 48 5 2.6264765143000000e-02 1.5508121527686733e+01 2.1141797689560502e+01 1.7009286939267582e+01 1 1 0
6210 70 5 2.7003581479000002e-02 2.7315627808734760e+01 3.0938661556924952e+01 1.4838894557555296e+01 1 0 1
5458 62 1 -5.2844670757999999e-02 2.1961433291537119e+01 2.1672028496859056e+01 2.7198561552501928e+01 0 1 0
4260 48 5 2.2977513104000001e-02 1.7201895579808934e+01 3.1536487752584737e+01 1.7156241576129492e+01 1 1 0
4239 48 5 2.6531412109000001e-02 1.8404521238715155e+01 3.0174407153892808e+01 1.5007418965855635e+01 1 1 0
4195 48 3 2.6217883716500001e-01 2.1662800887295468e+01 2.0823349766610740e+01 1.4861610283470130e+01 1 1 0
6650 75 5 2.6531412109000001e-02 3.2377647609303637e+01 1.5081735212795204e+01 2.4965536876196566e+01 0 0 1
5468 62 5 5.7361720903999998e-02 2.3135321115942865e+01 1.5018814053194637e+01 2.5389827482005451e+01 0 1 0
1407 16 5 2.6531412109000001e-02 2.1798939484288745e+01 3.1562050683842383e+01 2.2324841547362141e+01 0 1 0
1510 17 5 2.6264765143000000e-02 1.9818681231193100e+01 1.4835493408961792e+01 1.7516678912150944e+01 1 2 0
6425 73 4 -2.6497516144900002e-01 3.9836980678772626e+01 1.6808603059582275e+01 1.8990021290925934e+01 -1 1 0
4069 46 5 2.6531412109000001e-02 1.5292131413101758e+01 2.1481569788667588e+01 2.3874613600612509e+01 1 2 0
5466 62 5 5.7361720903999998e-02 2.1802987247701264e+01 1.7648585622984680e+01 2.7228010204574968e+01 0 1 0
4028 46 1 -4.4063405291000002e-02 1.7736813477929527e+01 2.4964055047355494e+01 2.7143852111485490e+01 1 2 0
6643 75 5 2.6264765143000000e-02 3.1199843751097642e+01 1.5253777273006120e+01 2.0371482863117315e+01 0 0 1
4190 48 2 -3.1440815438399999e-01 2.1942354168493118e+01 2.2086574797925593e+01 1.5071832653862776e+01 1 1 0
4222 48 5 5.7361720903999998e-02 2.1686649636377059e+01 2.2002312931901649e+01 1.7243934907773316e+01 1 1 0
5474 62 5 3.6606329335999999e-02 2.7189187811954138e+01 1.5543337943948615e+01 2.6582111100651616e+01 0 1 0
7567 86 1 6.9063699647000001e-02 3.7243208976014898e+01 2.5077891061735961e+01 1.5200712134899449e+01 -1 0 1
5491 62 5 2.7003581479000002e-02 2.0344090891788724e+01 2.0512808768568913e+01 2.6417106878420107e+01 0 1 0
5457 62 1 -4.4063405291000002e-02 2.0758180801489331e+01 2.1519142594231731e+01 2.6208736395524888e+01 0 1 0
5673 64 5 2.6264765143000000e-02 3.9122340652411836e+01 2.7747321133919307e+01 1.7572767813801292e+01 0 0 0
2718 31 5 2.7003581479000002e-02 3.3931494316669188e+01 3.0446966388633275e+01 1.6240071578216952e+01 0 0 0
1473 17 5 2.6531412109000001e-02 1.8880281784298951e+01 1.5643016754130059e+01 1.5130158547435661e+01 1 2 0
5490 62 5 2.7003581479000002e-02 2.0019078270230125e+01 2.2238538445761044e+01 2.6541575051115132e+01 0 1 0
5184 59 1 3.3198802574999998e-02 3.3606010338670870e+01 2.6526946067233823e+01 2.6998767212664973e+01 0 -1 0
5246 59 1 -6.5276132121999994e-02 3.3308398666500395e+01 2.9669156690863304e+01 2.2190921229600512e+01 0 -1 0
4258 48 5 2.2977513104000001e-02 1.7988705660060560e+01 3.0484921410625773e+01 1.8415472720621160e+01 1 1 0
5667 64 5 3.6606329335999999e-02 3.7976776275247460e+01 2.5579351946170522e+01 2.1192399156379068e+01 0 0 0
5666 64 5 3.6606329335999999e-02 3.9646751371516359e+01 2.5361816664234588e+01 2.1693169991457356e+01 0 0 0
5669 64 5 2.7003581479000002e-02 3.9392111885285317e+01 2.6024720875320810e+01 1.9419400811526778e+01 0 0 0
5492 62 5 2.6531412109000001e-02 2.2665987341106913e+01 2.0807369474083412e+01 2.7173551912251785e+01 0 1 0
5169 59 2 -3.1440815438399999e-01 3.4097910621701118e+01 2.4301887191471010e+01 2.1417070811846745e+01 0 -1 0
4213 48 1 -5.5899438604999997e-02 1.4808249358690590e+01 2.1747048411526464e+01 1.7594636077875034e+01 1 1 0
5447 62 1 3.3198802574999998e-02 2.6431047676431174e+01 1.6326528897253329e+01 2.6780051602096549e+01 0 1 0
6653 75 5 3.6606329335999999e-02 2.3353057688566849e+01 2.0660469727979599e+01 1.9280299700647610e+01 0 0 1
4202 48 1 -4.4063405291000002e-02 2.4104643809427806e+01 2.0144877735312246e+01 1.5470943526914542e+01 1 1 0
5499 62 5 2.7003581479000002e-02 2.3996934571192703e+01 1.6046299167003781e+01 2.0410317950004405e+01 0 1 0
5473 62 5 5.7361720903999998e-02 2.3282691678585387e+01 1.8359441190153440e+01 2.3750039094599650e+01 0 1 0
4232 48 5 2.6531412109000001e-02 2.4657614718592786e+01 1.8450974351987693e+01 1.6691217144949658e+01 1 1 0
4203 48 1 -5.2844670757999999e-02 2.4958094905267000e+01 1.8954778237439946e+01 1.5783610218678504e+01 1 1 0
1416 16 5 2.2977513104000001e-02 1.9829124554127791e+01 3.0945378502207227e+01 2.4473236259738009e+01 0 1 0
6599 75 3 2.6217883716500001e-01 2.4724953477213781e+01 1.9321994495566926e+01 1.9987491565866847e+01 0 0 1
6602 75 4 -2.6497516144900002e-01 2.5272137344865207e+01 1.8352724428035138e+01 1.9470577065289284e+01 0 0 1
4231 48 5 2.7003581479000002e-02 2.3941882270462855e+01 2.0854633255673104e+01 1.6335639428832774e+01 1 1 0
5432 62 1 6.9063699647000001e-02 2.3431451035638460e+01 1.6040379434806692e+01 2.5233159490254621e+01 0 1 0
6641 75 5 2.6531412109000001e-02 3.2645764883978188e+01 1.6419697091756433e+01 1.8767873918091361e+01 0 0 1
6595 75 2 -3.1440815438399999e-01 2.5249289453062310e+01 2.0094724788737690e+01 2.1015481721234700e+01 0 0 1
6625 75 5 5.7361720903999998e-02 2.5962650555857781e+01 2.0150901491749572e+01 2.3404604052189541e+01 0 0 1
6627 75 5 5.7361720903999998e-02 2.6715991462359881e+01 2.1577013708784186e+01 2.0997861187892809e+01 0 0 1
6629 75 5 5.7361720903999998e-02 2.6603355236428612e+01 1.7890645116464643e+01 2.2259561013763690e+01 0 0 1
6590 75 1 6.9063699647000001e-02 2.6689056500110130e+01 2.0430476131256633e+01 2.0989407892033945e+01 0 0 1
6628 75 5 5.7361720903999998e-02 2.7051323146232740e+01 2.0065652598145103e+01 1.9974347092970856e+01 0 0 1
6593 75 2 -3.1440815438399999e-01 2.7245644272683251e+01 2.1835201761003280e+01 2.3734941244010177e+01 0 0 1
6589 75 1 6.9063699647000001e-02 2.7079326882944315e+01 2.0379472855600419e+01 2.3494786843816911e+01 0 0 1
6626 75 5 5.7361720903999998e-02 2.7512439311198925e+01 1.9864797492319408e+01 2.4313588688152088e+01 0 0 1
6591 75 1 6.9063699647000001e-02 2.7614590728682970e+01 1.8242685610317132e+01 2.2212364842636454e+01 0 0 1
6592 75 2 -3.1440815438399999e-01 2.8392834141797493e+01 1.7651318230527497e+01 2.3279498269590455e+01 0 0 1
6588 75 1 6.9063699647000001e-02 2.9101541478624199e+01 2.0325947396642512e+01 2.1904001931021082e+01 0 0 1
6587 75 1 6.6229863866999999e-02 2.7608435285639441e+01 1.9844870822599727e+01 2.2154206271376676e+01 0 0 1
6624 75 5 5.7361720903999998e-02 2.9744816768086356e+01 2.0115794565525295e+01 2.2744703071288424e+01 0 0 1
6630 75 5 5.7361720903999998e-02 2.7983524997316866e+01 1.7845647237586739e+01 2.1213324368182057e+01 0 0 1
6594 75 2 -3.1440815438399999e-01 2.9559131067304659e+01 1.9612008478475047e+01 2.0739751060260829e+01 0 0 1
6623 75 5 5.7361720903999998e-02 2.9223744408753802e+01 2.1343258947696036e+01 2.1613796163816264e+01 0 0 1
6596 75 3 2.6217883716500001e-01 3.0821181901208103e+01 1.9668429354831016e+01 2.0497874028673394e+01 0 0 1
6597 75 3 2.6217883716500001e-01 2.8690767825730752e+01 1.6373404263229009e+01 2.3164621275414433e+01 0 0 1
5469 62 5 5.7361720903999998e-02 2.3952890915942575e+01 1.6011394931958968e+01 2.4245138596704159e+01 0 1 0
6601 75 4 -2.6497516144900002e-01 3.1392421743784336e+01 2.0735307909076280e+01 2.0548070773989540e+01 0 0 1
6603 75 4 -2.6497516144900002e-01 2.7872712052350732e+01 1.5510678808296847e+01 2.3118165583292232e+01 0 0 1
6647 75 5 2.7003581479000002e-02 2.9746240487218408e+01 1.6451919753192037e+01 2.5504122059160046e+01 0 0 1
6614 75 1 -4.4063405291000002e-02 3.0383666857551233e+01 1.5711395864248614e+01 2.4912672371026943e+01 0 0 1
6608 75 1 3.3198802574999998e-02 3.1514523419050327e+01 1.8477059336264013e+01 2.0059135509223765e+01 0 0 1
6609 75 1 -4.4063405291000002e-02 3.1023836958870834e+01 1.7725394811057082e+01 1.8790988931491270e+01 0 0 1
6640 75 5 2.7003581479000002e-02 3.1156357501045424e+01 1.8365948001621259e+01 1.7910129164796153e+01 0 0 1
6165 70 1 -5.2844670757999999e-02 2.9640531770759225e+01 2.1757129504337065e+01 1.6963846238504761e+01 1 0 1
6638 75 5 3.6606329335999999e-02 3.2605330626429385e+01 1.8629646793621074e+01 1.9826808843848852e+01 0 0 1
6613 75 1 3.3198802574999998e-02 3.0084093610185214e+01 1.6023419081965887e+01 2.3406701078271411e+01 0 0 1
6646 75 5 3.6606329335999999e-02 3.0705826285712227e+01 1.6818390938233623e+01 2.2901799080044377e+01 0 0 1
6197 70 5 2.6531412109000001e-02 3.0669039909622782e+01 2.2026903478258998e+01 1.7334915356116316e+01 1 0 1
5498 62 5 2.7003581479000002e-02 2.2564296506263982e+01 1.5911199592486081e+01 1.9499125384914016e+01 0 1 0
6610 75 1 -5.2844670757999999e-02 3.1638434871782746e+01 1.6292854879967209e+01 1.8520435295269429e+01 0 0 1
6639 75 5 2.7003581479000002e-02 2.9929717603013177e+01 1.7610507895888098e+01 1.8849737916707458e+01 0 0 1
7632 86 5 3.6606329335999999e-02 3.8584481252427807e+01 2.1083573085815591e+01 2.0481936358437451e+01 -1 0 1
6194 70 5 2.7003581479000002e-02 2.8124329313921486e+01 2.2486720660741241e+01 1.8445263729263999e+01 1 0 1
4270 48 5 2.2977513104000001e-02 2.6520057540719606e+01 1.7401086510844621e+01 1.7298931703587247e+01 1 1 0
4204 48 1 -5.5899438604999997e-02 2.6422405979970584e+01 1.9225095652324587e+01 1.6167065871362038e+01 1 1 0
4272 48 5 2.2977513104000001e-02 2.8129199475630212e+01 1.8202125892219406e+01 1.7118417279468559e+01 1 1 0
4267 48 1 -6.5276132121999994e-02 2.7154040207472143e+01 1.7949442343534479e+01 1.6610990357486351e+01 1 1 0
4271 48 5 2.2977513104000001e-02 2.7343719038755232e+01 1.7318389290957519e+01 1.5737658840419714e+01 1 1 0
4269 48 5 2.6264765143000000e-02 2.6453934204894775e+01 1.9953788592634062e+01 1.6961475283871550e+01 1 1 0
5462 62 1 -4.4063405291000002e-02 2.3292594522261858e+01 1.5278164403804384e+01 2.0019015156989681e+01 0 1 0
6644 75 5 2.6264765143000000e-02 2.9949896800663574e+01 1.5006756768289922e+01 1.9115100502814656e+01 0 0 1
5502 62 5 2.6264765143000000e-02 2.3776285542327258e+01 1.5462125706364603e+01 1.7296312383944681e+01 0 1 0
5221 59 5 3.6606329335999999e-02 2.9592793853915495e+01 2.1258583957488931e+01 2.5182089035174148e+01 0 -1 0
5239 59 5 2.2977513104000001e-02 3.7046990045539879e+01 3.0502804626514504e+01 2.6896333557886290e+01 0 -1 0
4233 48 5 2.6531412109000001e-02 2.4970585390903082e+01 1.8221585702879274e+01 1.4941880266715762e+01 1 1 0
6615 75 1 -5.2844670757999999e-02 3.1875011730445983e+01 1.5998655319547705e+01 2.5263030762459387e+01 0 0 1
6649 75 5 2.6531412109000001e-02 3.2374691869541465e+01 1.6849446828576401e+01 2.4729759825465219e+01 0 0 1
5475 62 5 3.6606329335999999e-02 2.6639792625790797e+01 1.7151446772264137e+01 2.6060091321170937e+01 0 1 0
5189 59 1 3.3198802574999998e-02 3.0470753639061826e+01 2.0795580738318218e+01 2.5716649537851005e+01 0 -1 0
6637 75 5 3.6606329335999999e-02 3.1327959744143566e+01 1.7765304057090031e+01 2.0891592341923708e+01 0 0 1
6166 70 1 -5.5899438604999997e-02 2.9645624656105394e+01 2.1696077899319391e+01 1.5419330699421195e+01 1 0 1
5222 59 5 3.6606329335999999e-02 3.0228299288340168e+01 1.9812054830997226e+01 2.6002033676946240e+01 0 -1 0
6616 75 1 -5.5899438604999997e-02 3.2084950642589448e+01 1.6316558952884304e+01 2.6828044557405910e+01 0 0 1
2720 31 5 2.6531412109000001e-02 3.1652025697439164e+01 2.8811131009792753e+01 1.4937031948006476e+01 0 0 0
2987 34 5 2.6531412109000001e-02 2.8969691584813738e+01 3.1541651192019007e+01 2.1723351308200336e+01 0 0 0
6164 70 1 -4.4063405291000002e-02 2.8535208702385383e+01 2.2781568314521294e+01 1.7490391075603995e+01 1 0 1
6192 70 5 3.6606329335999999e-02 2.9868467231664376e+01 2.4109643637819609e+01 1.8742555630058014e+01 1 0 1
10746 121 5 2.6264765143000000e-02 1.5346913524132463e+01 3.1281482820951553e+01 2.6965633294943590e+01 0 1 0
10711 121 1 -6.5276132121999994e-02 1.5836180300660226e+01 3.1342574304622936e+01 2.4810367416318535e+01 0 1 0
5654 64 5 2.7003581479000002e-02 3.9926101084244216e+01 2.5525056106891441e+01 2.7038646742257132e+01 0 0 0
5436 62 2 -3.1440815438399999e-01 2.4161049711441464e+01 1.6551865169939973e+01 2.6342924136532297e+01 0 1 0
5190 59 1 -4.4063405291000002e-02 3.0775819815729307e+01 2.1708731989432430e+01 2.6915383703668056e+01 0 -1 0
6218 70 5 2.2977513104000001e-02 3.0852289265627832e+01 1.9789665037050298e+01 1.5170904346209200e+01 1 0 1
6645 75 5 3.6606329335999999e-02 3.0237293207603496e+01 1.5159786437922715e+01 2.2786400830379755e+01 0 0 1
5247 59 5 2.6264765143000000e-02 3.3627617868615772e+01 3.0593418746769856e+01 2.0258112650197504e+01 0 -1 0
4221 48 5 5.7361720903999998e-02 2.0330767514813907e+01 2.4745438459275960e+01 1.4798124489926797e+01 1 1 0
7570 86 1 6.9063699647000001e-02 3.7351173549682606e+01 2.2487380399817170e+01 1.5200012132610897e+01 -1 0 1
4058 46 5 2.7003581479000002e-02 1.8026578918376028e+01 2.5942003804039786e+01 2.6910393839704206e+01 1 2 0
6648 75 5 2.7003581479000002e-02 3.0083460699063380e+01 1.4729449606386884e+01 2.5202329881798065e+01 0 0 1
5173 59 3 2.6217883716500001e-01 3.1592930821561492e+01 2.0674233978120899e+01 2.4783464583159592e+01 0 -1 0
5179 59 4 -2.6497516144900002e-01 3.2202178871779282e+01 1.9609353049999498e+01 2.4664149906124262e+01 0 -1 0
5236 59 5 2.6264765143000000e-02 3.6995554075686954e+01 1.6867996852906366e+01 2.6684564637269979e+01 0 -1 0
5176 59 4 -2.6497516144900002e-01 3.3495986660751548e+01 2.3730062886889620e+01 1.9297969990295545e+01 0 -1 0
7608 86 5 5.7361720903999998e-02 3.7927453503052909e+01 2.1607464305988074e+01 1.5361692052924305e+01 -1 0 1
5178 59 4 -2.6497516144900002e-01 3.8264404569790450e+01 2.2983992874668530e+01 2.3806693340781472e+01 0 -1 0
6198 70 5 2.6264765143000000e-02 2.8724575589105598e+01 2.1148246581768159e+01 1.5052438835336194e+01 1 0 1
6196 70 5 2.6531412109000001e-02 2.9412204283604027e+01 2.0733045997357845e+01 1.7295978707916095e+01 1 0 1
9406 106 5 2.7003581479000002e-02 2.7083847569430723e+01 2.8749298980227394e+01 2.7081100116520126e+01 0 0 1
6569 74 5 2.6531412109000001e-02 3.7584544801325791e+01 1.6150182418287841e+01 1.9809811394843205e+01 1 1 0
6570 74 5 2.6264765143000000e-02 3.6775523548776306e+01 1.6532701802116499e+01 2.2256335638448103e+01 1 1 0
6532 74 1 -5.5899438604999997e-02 3.6095340490969605e+01 1.6665976221746678e+01 2.1400017610913245e+01 1 1 0
6531 74 1 -5.2844670757999999e-02 3.6620558477563847e+01 1.5763647117531034e+01 2.0241890420071648e+01 1 1 0
6533 74 1 -6.5276132121999994e-02 3.4606996777113487e+01 1.6358879457158839e+01 2.1838953761777088e+01 1 1 0
6579 74 5 2.2977513104000001e-02 3.4268548704938325e+01 1.7125696850119446e+01 2.2440883130398518e+01 1 1 0
6578 74 5 2.2977513104000001e-02 3.4436555506730862e+01 1.5394638827825901e+01 2.2298707882528465e+01 1 1 0
5234 59 5 2.6531412109000001e-02 3.7754347782334250e+01 1.7862121065614762e+01 2.4686000720499564e+01 0 -1 0
6470 73 5 2.7003581479000002e-02 3.9373839370592819e+01 1.8511155703659320e+01 1.6300146409961638e+01 -1 1 0
5168 59 2 -3.1440815438399999e-01 3.2135701214868163e+01 2.1791017616214624e+01 2.4274858374449515e+01 0 -1 0
5215 59 5 2.7003581479000002e-02 3.4585668434342139e+01 2.7269235721260348e+01 2.5232117962204377e+01 0 -1 0
5229 59 5 3.6606329335999999e-02 3.7974917562705834e+01 2.0050245290858186e+01 2.3168433829965579e+01 0 -1 0
7646 86 5 2.2977513104000001e-02 3.4252059823802412e+01 1.9363214395612754e+01 1.5164191765654225e+01 -1 0 1
7634 86 5 2.7003581479000002e-02 3.8092333512970427e+01 2.0116633505122703e+01 1.8096051671992068e+01 -1 0 1
5205 59 5 5.7361720903999998e-02 3.4026247255274626e+01 2.1044739985563307e+01 2.3890477641233502e+01 0 -1 0
7647 86 5 2.2977513104000001e-02 3.3661115359820712e+01 1.8561341035934500e+01 1.6504759896817998e+01 -1 0 1
7639 86 5 2.6264765143000000e-02 3.5942854760942531e+01 1.8414150268206150e+01 1.7104419055685401e+01 -1 0 1
7638 86 5 2.6264765143000000e-02 3.6347525463034351e+01 1.9890612929412960e+01 1.6192369038321466e+01 -1 0 1
7635 86 5 2.7003581479000002e-02 3.7459842890876999e+01 1.9169886903501158e+01 1.9401072721822995e+01 -1 0 1
7601 86 1 -6.5276132121999994e-02 3.4210817853935083e+01 1.9393195366250801e+01 1.6237689907142673e+01 -1 0 1
7600 86 1 -5.5899438604999997e-02 3.5640515682476391e+01 1.9474046158137323e+01 1.6926128862663436e+01 -1 0 1
7637 86 5 2.6531412109000001e-02 3.5282699206494094e+01 1.9910611372802400e+01 1.9028670238393946e+01 -1 0 1
7599 86 1 -5.2844670757999999e-02 3.5928114914530930e+01 2.0201417279370425e+01 1.8251320473079467e+01 -1 0 1
7598 86 1 -4.4063405291000002e-02 3.7365031447879147e+01 2.0097047804015880e+01 1.8882137911367820e+01 -1 0 1
5231 59 5 2.7003581479000002e-02 3.6776729409648297e+01 2.0682454568316295e+01 2.5823473043195698e+01 0 -1 0
7648 86 5 2.2977513104000001e-02 3.3566913390670400e+01 2.0238135204800635e+01 1.6559000239240703e+01 -1 0 1
5195 59 1 -4.4063405291000002e-02 3.6949377822562482e+01 1.9923003826493549e+01 2.5040508100020254e+01 0 -1 0
7636 86 5 2.6531412109000001e-02 3.5678975621273793e+01 2.1229501862903465e+01 1.8129493088836259e+01 -1 0 1
5232 59 5 2.7003581479000002e-02 3.5951509407197292e+01 1.9754878307649737e+01 2.4524608277069547e+01 0 -1 0
5167 59 1 6.9063699647000001e-02 3.3554215971909926e+01 2.1935109510694712e+01 2.4327736615703202e+01 0 -1 0
6469 73 5 2.7003581479000002e-02 3.8359624276603284e+01 1.7077247101608133e+01 1.6727757465860968e+01 -1 1 0
6436 73 1 -4.4063405291000002e-02 3.9257890333092156e+01 1.7440305076959024e+01 1.6130559037295427e+01 -1 1 0
5187 59 1 -5.5899438604999997e-02 3.5217997336461721e+01 2.9998544907426648e+01 2.5786620000258708e+01 0 -1 0
5194 59 1 3.3198802574999998e-02 3.7952971460742816e+01 2.0666343321969311e+01 2.4043679617335563e+01 0 -1 0
6568 74 5 2.6531412109000001e-02 3.5921246714528309e+01 1.5817804588727434e+01 1.9440071988483357e+01 1 1 0
5235 59 5 2.6264765143000000e-02 3.5573995634716631e+01 1.7426197889997432e+01 2.5808001881511530e+01 0 -1 0
5206 59 5 5.7361720903999998e-02 3.3963577782710843e+01 2.2003609216181641e+01 2.5323129036963216e+01 0 -1 0
6571 74 5 2.6264765143000000e-02 3.6129212957374975e+01 1.7708419017744983e+01 2.1242387487665120e+01 1 1 0
5196 59 1 -5.2844670757999999e-02 3.7506403749740542e+01 1.8533475562236951e+01 2.5529147511874847e+01 0 -1 0
4240 48 5 2.6264765143000000e-02 2.0179235069520153e+01 3.0950868089295700e+01 1.7282755119386149e+01 1 1 0
5230 59 5 3.6606329335999999e-02 3.8893721177737419e+01 2.0809474726642136e+01 2.4470250845729812e+01 0 -1 0
6580 74 5 2.2977513104000001e-02 3.4082870078254096e+01 1.6472745572407334e+01 2.0925691594727649e+01 1 1 0
5233 59 5 2.6531412109000001e-02 3.8414781709003563e+01 1.8652299997198373e+01 2.6184691856082743e+01 0 -1 0
6217 70 5 2.2977513104000001e-02 3.1792229480836561e+01 2.1307668786324619e+01 1.5074619259696259e+01 1 0 1
5201 59 5 5.7361720903999998e-02 3.4339671441792419e+01 2.2181190701425784e+01 2.1606047742995052e+01 0 -1 0
5175 59 3 2.6217883716500001e-01 3.7490871165729587e+01 2.2010817133016051e+01 2.3705711855348351e+01 0 -1 0
5171 59 2 -3.1440815438399999e-01 3.6265940049448687e+01 2.2164285540550186e+01 2.3249253107103577e+01 0 -1 0
8511 96 5 2.6531412109000001e-02 3.9773560028217901e+01 1.5582920338564680e+01 2.1902353004637405e+01 -1 1 0
5695 64 5 2.2977513104000001e-02 3.6286741192640100e+01 2.3234077184361290e+01 2.7134375216543134e+01 0 0 0
5197 59 1 -5.5899438604999997e-02 3.6462327236459728e+01 1.7719375071721085e+01 2.6397803294635835e+01 0 -1 0
7597 86 1 3.3198802574999998e-02 3.7653212403540806e+01 2.1223563750732765e+01 1.9916037811714048e+01 -1 0 1
7633 86 5 3.6606329335999999e-02 3.6810878321926495e+01 2.1219709551100873e+01 2.0657012966501526e+01 -1 0 1
6652 75 5 2.6264765143000000e-02 3.1603414611183567e+01 1.7217276454851685e+01 2.7157510386455691e+01 0 0 1
7572 86 2 -3.1440815438399999e-01 3.9990419756505574e+01 2.5141059933152984e+01 1.6181616790242025e+01 -1 0 1
5653 64 5 3.6606329335999999e-02 3.8679021205893235e+01 2.7677609639877520e+01 2.7253030975251793e+01 0 0 0
9434 106 5 2.2977513104000001e-02 3.6267102392748967e+01 3.1508381630198489e+01 2.1853740021215529e+01 0 0 1
9374 106 1 -5.2844670757999999e-02 2.4917348087981054e+01 2.9330628910709812e+01 2.7039250432673413e+01 0 0 1
3024 34 5 2.2977513104000001e-02 3.0812698876218366e+01 3.1106985974298361e+01 1.9226234314466950e+01 0 0 0
5223 59 5 2.7003581479000002e-02 3.1125170719105210e+01 2.2666755138646735e+01 2.6514613599689653e+01 0 -1 0
5202 59 5 5.7361720903999998e-02 3.2678567014487953e+01 2.2882937424532926e+01 2.1993241097859009e+01 0 -1 0
5165 59 1 6.9063699647000001e-02 3.3735940292807705e+01 2.3064156006161703e+01 2.2053897763516183e+01 0 -1 0
5163 59 1 6.6229863866999999e-02 3.4032855952313042e+01 2.3179063196198591e+01 2.3558384666877643e+01 0 -1 0
7578 86 3 2.6217883716500001e-01 3.7895880608502672e+01 2.2544315211929732e+01 1.9371787611568308e+01 -1 0 1
5204 59 5 5.7361720903999998e-02 3.5820152816075137e+01 2.3694266348327449e+01 2.4746817859687777e+01 0 -1 0
8513 96 5 2.6264765143000000e-02 3.9673048912120478e+01 1.7770770534161148e+01 2.2909090949886320e+01 -1 1 0
5613 64 2 -3.1440815438399999e-01 3.9955060416734199e+01 2.7180262145283855e+01 2.3212345374579943e+01 0 0 0
2689 31 1 -4.4063405291000002e-02 3.3307955950415156e+01 3.0182363170251421e+01 1.5359941642922349e+01 0 0 0
7575 86 3 2.6217883716500001e-01 3.5226686432514590e+01 2.6251205368595041e+01 1.4756958806265660e+01 -1 0 1
5650 64 5 5.7361720903999998e-02 3.9393206036995217e+01 2.8907917953660764e+01 2.4230495032952170e+01 0 0 0
7574 86 2 -3.1440815438399999e-01 3.8240294257202748e+01 2.2684040403508021e+01 1.8070039036430011e+01 -1 0 1
6642 75 5 2.6531412109000001e-02 3.1397451746791166e+01 1.6086994609203931e+01 1.7404410726962386e+01 0 0 1
6188 70 5 2.7003581479000002e-02 2.4762919951238253e+01 3.1386187136604757e+01 1.7803378713408414e+01 1 0 1
5503 62 5 2.6264765143000000e-02 2.5301696682789434e+01 1.5639888346758967e+01 1.8150813997073051e+01 0 1 0
4080 46 5 2.2977513104000001e-02 1.7401677889526848e+01 2.2547018628302304e+01 2.3887378186754251e+01 1 2 0
4063 46 5 2.6264765143000000e-02 1.9120980002192631e+01 2.4118419637795583e+01 2.5006802694659299e+01 1 2 0
7569 86 1 6.9063699647000001e-02 3.7695128787375879e+01 2.3804613546051048e+01 1.7433593516650536e+01 -1 0 1