LAMMPS data file via write_data, version 22 Aug 2018, timestep = 4000000

11125 atoms
5 atom types
11000 bonds
6 bond types
20750 angles
11 angle types
28000 dihedrals
15 dihedral types
500 impropers
1 improper types

1.4200758172936332e+01 6.5799241826841438e+01 xlo xhi
1.4200758172936332e+01 6.5799241826841438e+01 ylo yhi
1.4200758172936332e+01 6.5799241826841438e+01 zlo zhi

Masses

1 12.0107
2 15.9994
3 12.0107
4 15.9994
5 1.00794

Pair Coeffs # lj/cut/coul/long

1 0.0951 3.47299
2 0.0957 3.03315
3 0.0951 3.47299
4 0.0957 3.03315
5 0.0152 2.84642

Bond Coeffs # harmonic

1 350 1.53
2 350 1.42
3 350 1.32
4 700 1.22
5 350 1.43
6 350 1.09

Angle Coeffs # harmonic

1 50 109.47
2 50 109.47
3 50 109.47
4 50 109.47
5 50 109.47
6 50 104.51
7 50 120
8 50 120
9 50 120
10 50 109.47
11 50 109.47

Dihedral Coeffs # harmonic

1 0.1111 1 3
2 0.1111 1 3
3 0.3333 1 3
4 0.3333 1 3
5 0.5 -1 2
6 0.5 -1 2
7 0.1667 1 3
8 0.0833 -1 6
9 0.1667 1 3
10 0.0833 -1 6
11 0.1111 1 3
12 0.1111 1 3
13 0.1111 1 3
14 0.1111 1 3
15 0.1111 1 3

Improper Coeffs # harmonic

1 20 0

Atoms # full

3276 37 5 2.6531412109000001e-02 1.6930766626204218e+01 1.7364832674359384e+01 1.6586062742271544e+01 0 1 0
3239 37 1 -5.5899438604999997e-02 1.7674493453231683e+01 1.9332299047761179e+01 1.6729591964465744e+01 0 1 0
3277 37 5 2.6264765143000000e-02 1.8260692179738221e+01 1.9986650772571643e+01 1.7337436360780170e+01 0 1 0
9365 106 1 -5.2844670757999999e-02 2.0555808802746505e+01 2.4238540842060875e+01 1.8589363362619622e+01 0 0 1
6549 74 5 3.6606329335999999e-02 1.8812099621541382e+01 1.8459562870015830e+01 2.2050421890599836e+01 1 1 0
6519 74 1 3.3198802574999998e-02 1.7780834883522996e+01 1.8445252561430003e+01 2.1814551541147161e+01 1 1 0
6507 74 3 2.6217883716500001e-01 1.7215401887545223e+01 1.7586792730218249e+01 2.2818182127204658e+01 1 1 0
3240 37 1 -6.5276132121999994e-02 1.6353113985649628e+01 2.0061094067031139e+01 1.6384828138408803e+01 0 1 0
6520 74 1 -4.4063405291000002e-02 1.7343226666656491e+01 1.9914837727429969e+01 2.1649093396993511e+01 1 1 0
6521 74 1 -5.2844670757999999e-02 1.5926658172023823e+01 2.0027129960711832e+01 2.0990805336909578e+01 1 1 0
6551 74 5 2.7003581479000002e-02 1.8061686627797393e+01 2.0386103966863782e+01 2.0964881884830312e+01 1 1 0
6512 74 4 -2.6497516144900002e-01 1.6684707834418084e+01 1.6596715016855864e+01 2.2406333778991229e+01 1 1 0
6550 74 5 2.7003581479000002e-02 1.7397078508028617e+01 2.0523422628114957e+01 2.2527430125896682e+01 1 1 0
6548 74 5 3.6606329335999999e-02 1.7670010388948374e+01 1.7944426357862049e+01 2.0854276212815972e+01 1 1 0
9430 106 5 2.6264765143000000e-02 2.1284086908855706e+01 2.6104140549522597e+01 1.9629485916158497e+01 0 0 1
9395 106 5 2.6531412109000001e-02 2.0625626321926148e+01 2.3692147418342422e+01 1.9495816916616835e+01 0 0 1
9366 106 1 -5.5899438604999997e-02 2.0489350308520887e+01 2.5789655032490700e+01 1.8951217271910512e+01 0 0 1
9431 106 5 2.6264765143000000e-02 2.0454309985061805e+01 2.6353464658542674e+01 1.8022625463163994e+01 0 0 1
9394 106 5 2.6531412109000001e-02 1.9593507800528350e+01 2.3960018598583837e+01 1.8086611321170899e+01 0 0 1
6534 74 5 5.7361720903999998e-02 1.8760621115957818e+01 1.8230150401606497e+01 2.5001931829513126e+01 1 1 0
6499 74 1 6.9063699647000001e-02 1.7925330576264482e+01 1.7593770472331503e+01 2.5067610301240908e+01 1 1 0
6505 74 2 -3.1440815438399999e-01 1.6910940950039755e+01 1.8004594926065206e+01 2.4058788648380727e+01 1 1 0
6535 74 5 5.7361720903999998e-02 1.8214406557173717e+01 1.6576793723469109e+01 2.4782592303645274e+01 1 1 0
6559 74 5 2.7003581479000002e-02 1.8200639574018751e+01 2.1880388543950847e+01 2.5211388023142334e+01 1 1 0
6526 74 1 -5.2844670757999999e-02 1.7081744432340312e+01 2.3818247364851050e+01 2.5080351278965445e+01 1 1 0
6525 74 1 -4.4063405291000002e-02 1.7891181596078940e+01 2.2676303902703129e+01 2.5862471008892307e+01 1 1 0
9429 106 1 -6.5276132121999994e-02 1.9117250332533452e+01 2.6141928111848944e+01 1.9644288474446256e+01 0 0 1
6552 74 5 2.6531412109000001e-02 1.5201179181166228e+01 1.9494240806436245e+01 2.1603100746922998e+01 1 1 0
6561 74 5 2.6531412109000001e-02 1.6077616028914662e+01 2.3443810841613342e+01 2.5005304929616457e+01 1 1 0
3274 37 5 2.7003581479000002e-02 1.9291938385443039e+01 1.7609125334191368e+01 1.8508913417825049e+01 0 1 0
6553 74 5 2.6531412109000001e-02 1.6048785514554005e+01 1.9489279420009066e+01 2.0069350014108384e+01 1 1 0
3238 37 1 -5.2844670757999999e-02 1.7496731848703753e+01 1.7947056623606272e+01 1.7354825867150751e+01 0 1 0
3275 37 5 2.6531412109000001e-02 1.6897058863939787e+01 1.8060060212484565e+01 1.8259718879998843e+01 0 1 0
6522 74 1 -5.5899438604999997e-02 1.5482232473024531e+01 2.1545943912914584e+01 2.0770884950130064e+01 1 1 0
3237 37 1 -4.4063405291000002e-02 1.8782408106067543e+01 1.7052980427924108e+01 1.7689331121376558e+01 0 1 0
6555 74 5 2.6264765143000000e-02 1.6376871235123886e+01 2.1883978324905197e+01 2.0242716176751664e+01 1 1 0
6536 74 5 5.7361720903999998e-02 1.5088628972642217e+01 1.7189717406437538e+01 2.5909762987197123e+01 1 1 0
4733 54 4 -2.6497516144900002e-01 2.5571866233180671e+01 2.6844644793494332e+01 1.8580294265442102e+01 0 0 2
6537 74 5 5.7361720903999998e-02 1.5909015212898179e+01 1.5712496561655270e+01 2.5920356411249738e+01 1 1 0
176 2 5 2.2977513104000001e-02 3.1261298678364010e+01 2.1239908920085679e+01 2.2058892092624120e+01 0 0 0
6558 74 5 2.7003581479000002e-02 1.8883647986413230e+01 2.3183712723210316e+01 2.6171245379365160e+01 1 1 0
9434 106 5 2.2977513104000001e-02 1.9410668431458340e+01 2.6957691304185339e+01 2.0275295572924033e+01 0 0 1
962 11 5 2.6531412109000001e-02 2.9936710007051097e+01 1.5598869142438332e+01 2.1322179738080624e+01 0 0 1
968 11 5 2.2977513104000001e-02 2.2399097168214301e+01 1.5240127396757780e+01 1.8960115990053087e+01 0 0 1
4758 54 5 5.7361720903999998e-02 2.5907068743245809e+01 2.6431689753525987e+01 1.5482094454694709e+01 0 0 2
3273 37 5 2.7003581479000002e-02 1.8546442594091690e+01 1.5979539127033481e+01 1.7932513581703169e+01 0 1 0
4782 54 5 2.6264765143000000e-02 2.9240357927082275e+01 2.2092864309654605e+01 1.4997148590093840e+01 0 0 2
3213 37 2 -3.1440815438399999e-01 1.8860980549950263e+01 1.7119267111549703e+01 1.4218767484163465e+01 0 1 0
9433 106 5 2.2977513104000001e-02 1.8799835656798354e+01 2.5430996334799570e+01 2.0389359045290846e+01 0 0 1
6560 74 5 2.6531412109000001e-02 1.7124705791724928e+01 2.4702369351963867e+01 2.5695767615428529e+01 1 1 0
957 11 5 3.6606329335999999e-02 2.7953367816918721e+01 1.4748118875036832e+01 1.7918926903165193e+01 0 0 1
942 11 5 3.6606329335999999e-02 2.9712280484933551e+01 1.5268681253164461e+01 1.6344588119041315e+01 0 0 1
10207 115 5 2.7003581479000002e-02 1.5601619435661449e+01 2.6608145110889783e+01 2.7058986446638102e+01 1 0 1
4783 54 5 2.6264765143000000e-02 3.1031066974641302e+01 2.2375928465232718e+01 1.5332957417272336e+01 0 0 2
941 11 5 3.6606329335999999e-02 3.0254484790247982e+01 1.6015802523889636e+01 1.4830614915866795e+01 0 0 1
3236 37 1 3.3198802574999998e-02 1.9748422788110613e+01 1.6881494081325339e+01 1.6465956865617343e+01 0 1 0
8007 90 5 2.6264765143000000e-02 2.1209871804048138e+01 2.2257117953767274e+01 2.4319953776444059e+01 1 0 0
921 11 1 -6.5276132121999994e-02 2.3090956871813191e+01 1.4722415132043757e+01 1.8296250801151043e+01 0 0 1
4133 47 5 5.7361720903999998e-02 1.5043028187179715e+01 1.5180448794851911e+01 1.7047494264442804e+01 1 1 0
3217 37 3 2.6217883716500001e-01 1.9150915611739261e+01 1.6322723491190896e+01 1.5278614545379904e+01 0 1 0
8006 90 5 2.6264765143000000e-02 2.0390670313801913e+01 2.1484527911286577e+01 2.2862962221505143e+01 1 0 0
9364 106 1 -4.4063405291000002e-02 2.1772516464635846e+01 2.3863636940321669e+01 1.7683212471498411e+01 0 0 1
6563 74 5 2.6264765143000000e-02 1.7709622890604802e+01 2.3442673276359841e+01 2.2918229006946795e+01 1 1 0
6527 74 1 -5.5899438604999997e-02 1.7785805656338802e+01 2.4188407247665889e+01 2.3735381128638213e+01 1 1 0
3285 37 5 2.2977513104000001e-02 1.5641250790635915e+01 2.0037691928748785e+01 1.7148606700168521e+01 0 1 0
6562 74 5 2.6264765143000000e-02 1.8816189363787601e+01 2.4404890717772361e+01 2.3958066308358482e+01 1 1 0
3286 37 5 2.2977513104000001e-02 1.6544446289343867e+01 2.1093569955855820e+01 1.5966129737682010e+01 0 1 0
9432 106 5 2.2977513104000001e-02 1.8372319081465179e+01 2.6449507081720228e+01 1.8941934638686313e+01 0 0 1
3287 37 5 2.2977513104000001e-02 1.5872605777443974e+01 1.9417266482132842e+01 1.5611138206972408e+01 0 1 0
7967 90 5 3.6606329335999999e-02 2.0433415487294926e+01 2.0867188799091501e+01 2.6408927998248164e+01 1 0 0
7942 90 1 -5.5899438604999997e-02 2.1329943510814864e+01 2.1483270387943339e+01 2.3458442271398681e+01 1 0 0
9393 106 5 2.7003581479000002e-02 2.1641882132704357e+01 2.2723322611110021e+01 1.7572808524002131e+01 0 0 1
9392 106 5 2.7003581479000002e-02 2.1762711906090246e+01 2.4359825740211448e+01 1.6714654971028402e+01 0 0 1
7971 90 5 2.6531412109000001e-02 2.0731733162573097e+01 1.9523038535148245e+01 2.4081947432631406e+01 1 0 0
4755 54 5 5.7361720903999998e-02 2.3085875368508692e+01 2.6663520016134704e+01 1.5370112692161786e+01 0 0 2
7939 90 1 3.3198802574999998e-02 2.1351003876504898e+01 2.0285460394018628e+01 2.6710114543854800e+01 1 0 0
3278 37 5 2.6264765143000000e-02 1.8217154281696040e+01 1.9299080694249589e+01 1.5801107498870605e+01 0 1 0
6738 76 5 2.6531412109000001e-02 2.9732417472911393e+01 2.6844323931912324e+01 2.1140335204640113e+01 0 0 1
6528 74 1 -6.5276132121999994e-02 1.7292317221136678e+01 2.5564816498331062e+01 2.3223856898442378e+01 1 1 0
3271 37 5 3.6606329335999999e-02 2.0584546285632104e+01 1.6270349495050596e+01 1.6806522000148586e+01 0 1 0
6577 74 5 2.2977513104000001e-02 1.8098332257981600e+01 2.5983048652453153e+01 2.2594456206293764e+01 1 1 0
9391 106 5 3.6606329335999999e-02 2.3372338235008534e+01 2.5112413738095317e+01 1.8377949738880801e+01 0 0 1
970 11 5 2.2977513104000001e-02 2.3386942569731289e+01 1.5451560685030541e+01 1.7496792463551589e+01 0 0 1
6540 74 5 5.7361720903999998e-02 1.6281655865758264e+01 1.9561289935359035e+01 2.6100780779382927e+01 1 1 0
9363 106 1 3.3198802574999998e-02 2.3209646181047837e+01 2.4053150957174374e+01 1.8314829384170970e+01 0 0 1
9367 106 1 3.3198802574999998e-02 2.3021195285336738e+01 1.9429095036071431e+01 1.4517835815014884e+01 0 0 1
4770 54 5 2.7003581479000002e-02 1.9177828848788881e+01 2.4611775630699064e+01 1.4523048341256745e+01 0 0 2
4108 47 4 -2.6497516144900002e-01 1.5274831155051229e+01 1.5979113659252924e+01 1.9480423041934536e+01 1 1 0
6575 74 5 2.2977513104000001e-02 1.6361551745206963e+01 2.5412201573391204e+01 2.2667289095572524e+01 1 1 0
3272 37 5 3.6606329335999999e-02 2.0171421110626724e+01 1.7881941231341234e+01 1.6180047190799872e+01 0 1 0
9404 106 5 3.6606329335999999e-02 3.0259648732047452e+01 2.0580170203578767e+01 1.9206596173631887e+01 0 0 1
9361 106 4 -2.6497516144900002e-01 2.2859768185415660e+01 1.7792871078272022e+01 2.0835078850457052e+01 0 0 1
6554 74 5 2.6264765143000000e-02 1.5448404350428099e+01 2.2004810393089439e+01 2.1703809234587233e+01 1 1 0
7932 90 3 2.6217883716500001e-01 2.3767464408882567e+01 2.6643498200220751e+01 2.6387585899169242e+01 1 0 0
9390 106 5 3.6606329335999999e-02 2.3167433667748369e+01 2.3690324718965417e+01 1.9355145070417187e+01 0 0 1
3220 37 4 -2.6497516144900002e-01 1.8821475207324895e+01 1.5134033821430643e+01 1.5373499777615768e+01 0 1 0
9379 106 1 -5.2844670757999999e-02 2.5507774357606802e+01 1.5281319347743773e+01 2.3643376062872985e+01 0 0 1
8010 90 5 2.2977513104000001e-02 2.2549730969172785e+01 2.3188352906390733e+01 2.2455920114039522e+01 1 0 0
7941 90 1 -5.2844670757999999e-02 2.1593022627635467e+01 2.0087071039211807e+01 2.4068878695887477e+01 1 0 0
7970 90 5 2.6531412109000001e-02 2.2153838204372764e+01 1.9539347855933755e+01 2.3283016269280843e+01 1 0 0
9357 106 3 2.6217883716500001e-01 2.4273495957940483e+01 2.3278099887999666e+01 1.7708032831509954e+01 0 0 1
9383 106 5 5.7361720903999998e-02 2.3458200988306579e+01 1.9477512071993520e+01 1.7544464735604439e+01 0 0 1
9352 106 2 -3.1440815438399999e-01 2.4331238395471033e+01 2.1971559038709458e+01 1.8060951416133996e+01 0 0 1
9387 106 5 5.7361720903999998e-02 2.3987717063159607e+01 2.0156548194126081e+01 2.0080445022168568e+01 0 0 1
4778 54 5 2.7003581479000002e-02 2.7940488427206887e+01 2.4741133968836174e+01 1.4595042756172962e+01 0 0 2
6500 74 1 6.9063699647000001e-02 1.5788714567503353e+01 1.6662119940109417e+01 2.6488618874022311e+01 1 1 0
4182 47 5 2.2977513104000001e-02 1.4380296523070706e+01 1.4931842484226641e+01 2.3998768346306491e+01 1 1 0
6737 76 5 2.7003581479000002e-02 3.0502477328263275e+01 2.5329219950038482e+01 1.9411827821389046e+01 0 0 1
6740 76 5 2.6264765143000000e-02 3.0188006623180911e+01 2.4568122350665114e+01 2.1945621958818890e+01 0 0 1
6576 74 5 2.2977513104000001e-02 1.7138183518794353e+01 2.6300866248778682e+01 2.3956764806053272e+01 1 1 0
5684 64 5 2.2977513104000001e-02 1.5005254199631468e+01 2.5719197237917186e+01 2.0127801515924595e+01 1 0 0
8009 90 5 2.2977513104000001e-02 2.2412983772120377e+01 2.1495116812919399e+01 2.1532496627094165e+01 1 0 0
6755 76 5 2.2977513104000001e-02 3.0919973152507740e+01 2.6547500547326571e+01 2.4122160564798065e+01 0 0 1
7987 90 5 2.6264765143000000e-02 2.4296111733514991e+01 2.5186128133676014e+01 2.1422636487881359e+01 1 0 0
6703 76 1 -4.4063405291000002e-02 3.1064467936068969e+01 2.6194419706886933e+01 1.9655046306443122e+01 0 0 1
9351 106 2 -3.1440815438399999e-01 2.7945558962562849e+01 1.9750537378272377e+01 1.9198759171533013e+01 0 0 1
9377 106 1 3.3198802574999998e-02 2.4426398750742894e+01 1.7434863568132009e+01 2.2516429652105387e+01 0 0 1
7927 90 2 -3.1440815438399999e-01 2.2823602757868912e+01 2.5770857865441968e+01 2.6803929899185590e+01 1 0 0
923 11 1 -4.4063405291000002e-02 2.9728377082871667e+01 1.4668779210284097e+01 1.9259234441010523e+01 0 0 1
6462 73 5 2.7003581479000002e-02 2.8564476678201444e+01 1.7101553240815228e+01 2.7034519253692437e+01 0 1 0
6704 76 1 -5.2844670757999999e-02 3.0725275392375710e+01 2.6541435147094454e+01 2.1119388465733941e+01 0 0 1
4796 54 5 2.2977513104000001e-02 2.8970903234222455e+01 2.4144740168804400e+01 1.6811785780258909e+01 0 0 2
9417 106 5 2.6531412109000001e-02 2.5973434879986407e+01 1.5881145763075750e+01 2.4442484432568698e+01 0 0 1
6705 76 1 -5.5899438604999997e-02 3.0841206052867438e+01 2.5417115113947951e+01 2.2260423366945226e+01 0 0 1
6498 74 1 6.6229863866999999e-02 1.7208660006220420e+01 1.7554707546577326e+01 2.6456688865885290e+01 1 1 0
958 11 5 3.6606329335999999e-02 2.7805626207188272e+01 1.5316128360534510e+01 1.9644766508679609e+01 0 0 1
9397 106 5 3.6606329335999999e-02 2.2120060303520319e+01 1.8789133064440094e+01 1.4291299034217010e+01 0 0 1
135 2 5 3.6606329335999999e-02 2.6296447316828306e+01 2.0365009153897574e+01 2.5208662199731705e+01 0 0 0
943 11 5 2.7003581479000002e-02 2.7463409723609324e+01 1.6326112797936830e+01 1.5953514929531714e+01 0 0 1
912 11 1 3.3198802574999998e-02 2.9477453738414894e+01 1.5417018879848587e+01 1.5312389236648581e+01 0 0 1
110 2 1 -5.5899438604999997e-02 3.0047791440939939e+01 2.0389383701259234e+01 2.3496677439889872e+01 0 0 0
101 2 3 2.6217883716500001e-01 2.7514463802694280e+01 2.1904943387291624e+01 2.5785576647272272e+01 0 0 0
9360 106 4 -2.6497516144900002e-01 2.4382123218450477e+01 1.7554293622474283e+01 1.4857935042955386e+01 0 0 1
9415 106 5 2.7003581479000002e-02 2.6468151836403905e+01 1.6681899529108357e+01 2.2249035899833785e+01 0 0 1
9355 106 3 2.6217883716500001e-01 2.4093965754705117e+01 1.8645060900880502e+01 1.5235991703717671e+01 0 0 1
139 2 5 2.6531412109000001e-02 2.9036267055157555e+01 2.2224135013290841e+01 2.3490497879591636e+01 0 0 0
9414 106 5 2.7003581479000002e-02 2.5187635144530375e+01 1.5706809311498944e+01 2.1453956765322719e+01 0 0 1
138 2 5 2.6531412109000001e-02 2.8837874304168007e+01 2.1368484471242812e+01 2.1929049655109285e+01 0 0 0
9378 106 1 -4.4063405291000002e-02 2.5478795589087390e+01 1.6314738048123630e+01 2.2412474179269047e+01 0 0 1
7948 90 1 3.3198802574999998e-02 2.4896025987025794e+01 2.6340077309213239e+01 2.5488461277226747e+01 1 0 0
4732 54 4 -2.6497516144900002e-01 2.0542251527171267e+01 2.6863122472503495e+01 1.4331013863520461e+01 0 0 2
109 2 1 -5.2844670757999999e-02 2.8846288773132574e+01 2.1259844371441702e+01 2.3070442678812633e+01 0 0 0
6754 76 5 2.2977513104000001e-02 3.0194440372291780e+01 2.4916820478467926e+01 2.4266768796872139e+01 0 0 1
6706 76 1 -6.5276132121999994e-02 3.0280312319554376e+01 2.5839460440324878e+01 2.3627018314828057e+01 0 0 1
9406 106 5 2.7003581479000002e-02 3.0756681967550019e+01 1.8229352102813593e+01 1.7348005004051515e+01 0 0 1
174 2 5 2.6264765143000000e-02 3.0115684390452355e+01 2.0381859993684532e+01 2.4609486419573965e+01 0 0 0
175 2 5 2.6264765143000000e-02 2.9873631851932323e+01 1.9441384829850172e+01 2.3018183702128461e+01 0 0 0
96 2 2 -3.1440815438399999e-01 2.8359228858093303e+01 2.2062158547359523e+01 2.6737571911630752e+01 0 0 0
960 11 5 2.7003581479000002e-02 3.0032291140832868e+01 1.5529520566098519e+01 1.8623800460057531e+01 0 0 1
9416 106 5 2.6531412109000001e-02 2.4529827282588414e+01 1.4983984149327901e+01 2.3986962505802623e+01 0 0 1
9405 106 5 3.6606329335999999e-02 3.1186638344651570e+01 1.9049208198977183e+01 1.9657894476767027e+01 0 0 1
9358 106 3 2.6217883716500001e-01 2.4012036336800215e+01 1.7941160976411229e+01 2.1219958460922594e+01 0 0 1
103 2 4 -2.6497516144900002e-01 2.7003469821418271e+01 2.2890436346682904e+01 2.5297909722141842e+01 0 0 0
7966 90 5 3.6606329335999999e-02 2.1002974427348843e+01 1.9289971475882886e+01 2.6996539089929108e+01 1 0 0
6736 76 5 2.7003581479000002e-02 3.0693556100447545e+01 2.7056323677161977e+01 1.9036244318114846e+01 0 0 1
134 2 5 3.6606329335999999e-02 2.7816676037203727e+01 1.9814602851476899e+01 2.5479639682421862e+01 0 0 0
7985 90 5 2.6531412109000001e-02 2.6107386523885133e+01 2.6509960963630505e+01 2.3135616329067055e+01 1 0 0
7968 90 5 2.7003581479000002e-02 2.3132131150310897e+01 2.0747576382720144e+01 2.5368924950439272e+01 1 0 0
4754 54 5 5.7361720903999998e-02 2.3696383219865346e+01 2.5388605244875038e+01 1.4402761541239796e+01 0 0 2
9348 106 1 6.9063699647000001e-02 2.5623035407247951e+01 2.1421268148702634e+01 1.7995376872921149e+01 0 0 1
9386 106 5 5.7361720903999998e-02 2.5762776004075668e+01 2.0347594965080965e+01 2.0560068458108237e+01 0 0 1
9346 106 1 6.6229863866999999e-02 2.5458558351435318e+01 1.9848040292801336e+01 1.8427700306659940e+01 0 0 1
9372 106 1 3.3198802574999998e-02 3.0360351738975901e+01 1.9500451988385819e+01 1.9019739582584698e+01 0 0 1
7950 90 1 -5.2844670757999999e-02 2.5588246370529980e+01 2.5489181198721191e+01 2.3238640131539249e+01 1 0 0
8008 90 5 2.2977513104000001e-02 2.3428624359453956e+01 2.1849517527367929e+01 2.3038207484024710e+01 1 0 0
8005 90 1 -6.5276132121999994e-02 2.2432904790963686e+01 2.2061282347595306e+01 2.2501610349213184e+01 1 0 0
9389 106 5 5.7361720903999998e-02 2.7237958491573444e+01 1.9433957847072044e+01 1.7370658575207511e+01 0 0 1
913 11 1 -4.4063405291000002e-02 2.8292805677641727e+01 1.6460171778701220e+01 1.5209116527516363e+01 0 0 1
4775 54 5 2.6264765143000000e-02 1.7330113975026869e+01 2.2892470992232720e+01 1.4331698423379468e+01 0 0 2
8000 90 5 2.2977513104000001e-02 2.6675702890235307e+01 2.5814884820493422e+01 2.0712158874825171e+01 1 0 0
9362 106 4 -2.6497516144900002e-01 2.8926322804344906e+01 1.7767697744901742e+01 1.9778466204904433e+01 0 0 1
7981 90 5 3.6606329335999999e-02 2.5427919401897917e+01 2.5564548555060277e+01 2.5992681519743407e+01 1 0 0
4748 54 1 -6.5276132121999994e-02 2.9786686590783752e+01 2.3365313416465064e+01 1.6800000428072597e+01 0 0 2
9373 106 1 -4.4063405291000002e-02 3.0750026478605818e+01 1.9303356577499081e+01 1.7504905225607352e+01 0 0 1
7983 90 5 2.7003581479000002e-02 2.3831521378002073e+01 2.6570380093984831e+01 2.3559248557955883e+01 1 0 0
4780 54 5 2.6531412109000001e-02 3.0382614301557549e+01 2.4768302573102929e+01 1.4425266211315851e+01 0 0 2
6753 76 5 2.2977513104000001e-02 2.9240848502104413e+01 2.6261729470902701e+01 2.3604015189961132e+01 0 0 1
4156 47 5 2.7003581479000002e-02 1.8807613315717226e+01 1.4576745501131750e+01 2.2102474158263721e+01 1 1 0
7986 90 5 2.6264765143000000e-02 2.5111427454271336e+01 2.3671372792143352e+01 2.2067254942218774e+01 1 0 0
944 11 5 2.7003581479000002e-02 2.8653517001560239e+01 1.7438669567181044e+01 1.5475104722222966e+01 0 0 1
4795 54 5 2.2977513104000001e-02 3.0672191991990886e+01 2.3766808334793190e+01 1.7325249816450164e+01 0 0 2
4747 54 1 -5.5899438604999997e-02 3.0032498138575271e+01 2.2858889236900815e+01 1.5294795302611922e+01 0 0 2
7940 90 1 -4.4063405291000002e-02 2.2303493711726993e+01 2.0080119164978939e+01 2.5505028436079670e+01 1 0 0
137 2 5 2.7003581479000002e-02 2.6774584440020149e+01 2.1369874054534616e+01 2.3156726995754674e+01 0 0 0
9384 106 5 5.7361720903999998e-02 2.6444290801502014e+01 2.1873426531597612e+01 1.8525826333056408e+01 0 0 1
7952 90 1 -6.5276132121999994e-02 2.6354205454586005e+01 2.4784712698403183e+01 2.0860604343076751e+01 1 0 0
9385 106 5 5.7361720903999998e-02 2.5962418355615299e+01 2.1384669825882426e+01 1.6969290005038278e+01 0 0 1
9407 106 5 2.7003581479000002e-02 2.9906101054382560e+01 1.9810428753456627e+01 1.7038966867561200e+01 0 0 1
7999 90 5 2.2977513104000001e-02 2.5912365595312323e+01 2.4683342050676217e+01 1.9890748671240509e+01 1 0 0
9396 106 5 3.6606329335999999e-02 2.2769169795124334e+01 2.0230004544041641e+01 1.5175772540207088e+01 0 0 1
6503 74 2 -3.1440815438399999e-01 1.7996085536207151e+01 1.9735601117075422e+01 2.7054580617498893e+01 1 1 0
4719 54 1 6.9063699647000001e-02 2.3377942487985862e+01 2.6424493855337161e+01 1.4392729589344626e+01 0 0 2
9356 106 3 2.6217883716500001e-01 2.9033774909190193e+01 1.8884045086063576e+01 1.9302138238042286e+01 0 0 1
7949 90 1 -4.4063405291000002e-02 2.4375937259405525e+01 2.5794547972842018e+01 2.4126396649976790e+01 1 0 0
9349 106 1 6.9063699647000001e-02 2.5004639164792778e+01 1.9731538484448858e+01 1.9948116289787897e+01 0 0 1
136 2 5 2.7003581479000002e-02 2.7394678046629700e+01 1.9778861101709978e+01 2.3010923675411085e+01 0 0 0
7982 90 5 2.7003581479000002e-02 2.3689491661725228e+01 2.4883432482994969e+01 2.4251707930834645e+01 1 0 0
9353 106 2 -3.1440815438399999e-01 2.4955235353549060e+01 1.9124740967200580e+01 1.6079781308889402e+01 0 0 1
107 2 1 3.3198802574999998e-02 2.7318745480672373e+01 2.0650838270632665e+01 2.5084091277540875e+01 0 0 0
9413 106 5 3.6606329335999999e-02 2.3520740061079177e+01 1.7251687218147836e+01 2.3138754837959336e+01 0 0 1
7984 90 5 2.6531412109000001e-02 2.6228402534451625e+01 2.4840930325051666e+01 2.3868901495260559e+01 1 0 0
969 11 5 2.2977513104000001e-02 2.3918646143532179e+01 1.4404004705986846e+01 1.8859649854370801e+01 0 0 1
4797 54 5 2.2977513104000001e-02 2.9430144594662952e+01 2.2558085763905133e+01 1.7376547647881342e+01 0 0 2
8001 90 5 2.2977513104000001e-02 2.7060055255425443e+01 2.4025210777517966e+01 2.1058978575457978e+01 1 0 0
7969 90 5 2.7003581479000002e-02 2.2732532941099734e+01 1.9062288357869097e+01 2.5517896984788777e+01 1 0 0
9388 106 5 5.7361720903999998e-02 2.6703735278783874e+01 1.8157044454918417e+01 1.8500007289069444e+01 0 0 1
7951 90 1 -5.5899438604999997e-02 2.5226818561636634e+01 2.4791658333845675e+01 2.1879857633129426e+01 1 0 0
9350 106 1 6.9063699647000001e-02 2.6885466425051725e+01 1.9245218775866093e+01 1.8324972264403762e+01 0 0 1
9347 106 1 6.9063699647000001e-02 2.4466400328881939e+01 1.9107493963622726e+01 1.7412032215676696e+01 0 0 1
9382 106 5 5.7361720903999998e-02 2.4457987992875118e+01 1.8065199670260757e+01 1.7715256200191682e+01 0 0 1
108 2 1 -4.4063405291000002e-02 2.7534564024199216e+01 2.0705347396394984e+01 2.3546764135700052e+01 0 0 0
9359 106 4 -2.6497516144900002e-01 2.5001297152221241e+01 2.3704166234499038e+01 1.6811015576602873e+01 0 0 1
9354 106 2 -3.1440815438399999e-01 2.4928314970039587e+01 1.8308982464476347e+01 2.0276044114334013e+01 0 0 1
9412 106 5 3.6606329335999999e-02 2.4983945867779561e+01 1.8285737860478811e+01 2.2875868850521840e+01 0 0 1
922 11 1 3.3198802574999998e-02 2.8220479895920505e+01 1.4532513555215537e+01 1.8985982636939525e+01 0 0 1
5633 64 1 -6.5276132121999994e-02 1.4523496442658713e+01 2.6692927189798784e+01 2.0220482679431441e+01 1 0 0
4153 47 5 3.6606329335999999e-02 1.7053293587371659e+01 1.4459504024239934e+01 2.0438515683546747e+01 1 1 0
6502 74 1 6.9063699647000001e-02 1.6816086786186755e+01 1.8993863799508638e+01 2.6877576415011738e+01 1 1 0
924 11 1 -5.2844670757999999e-02 3.0239550668340943e+01 1.4645635655592489e+01 2.0772662684236614e+01 0 0 1
7962 90 5 5.7361720903999998e-02 2.0324142513224857e+01 2.4895779575228708e+01 2.6995866892721036e+01 1 0 0
6524 74 1 3.3198802574999998e-02 1.7186370210910905e+01 2.2130574949831122e+01 2.7096785764749001e+01 1 1 0
7960 90 5 5.7361720903999998e-02 2.2599420508007775e+01 2.3257314621645840e+01 2.7046428798470586e+01 1 0 0
6573 74 5 2.2977513104000001e-02 1.4228007142920646e+01 2.2703669600340159e+01 1.9583391859847204e+01 1 1 0
6556 74 5 3.6606329335999999e-02 1.6254278798588537e+01 2.1778903617987236e+01 2.6908384498936783e+01 1 1 0
9419 106 5 2.6264765143000000e-02 2.7567984479308969e+01 1.4424773592140898e+01 2.3002136145073067e+01 0 0 1
131 2 5 5.7361720903999998e-02 2.9101617070431612e+01 2.4670398287185510e+01 2.7001375127065543e+01 0 0 0
6484 73 5 2.2977513104000001e-02 2.4475153719232125e+01 1.6598760091865834e+01 2.6988466702066418e+01 0 1 0
878 10 5 2.2977513104000001e-02 1.6746970659281164e+01 2.0151741292473091e+01 3.6045399721661944e+01 1 0 0
10159 115 3 2.6217883716500001e-01 1.5139341987805510e+01 2.2297235895702613e+01 3.2833662442810038e+01 1 0 1
2971 34 1 -5.2844670757999999e-02 1.9858960912119343e+01 2.0429454806519971e+01 3.2775689289791920e+01 0 0 -1
3010 34 5 2.6264765143000000e-02 1.9579711424391949e+01 1.8433112645305648e+01 3.3730465797249622e+01 0 0 -1
2972 34 1 -5.5899438604999997e-02 1.9131677636854167e+01 1.9034058224443790e+01 3.2961814264170776e+01 0 0 -1
10214 115 5 3.6606329335999999e-02 1.6050252450107145e+01 2.0824970423422993e+01 3.1630888922850339e+01 1 0 1
825 10 1 -5.2844670757999999e-02 1.8536460464997493e+01 1.9619065774241850e+01 3.9068865537591961e+01 1 0 0
856 10 5 2.6531412109000001e-02 1.8979929150846409e+01 2.0650780959439828e+01 3.9157692072767574e+01 1 0 0
2969 34 1 3.3198802574999998e-02 2.1332020428882373e+01 2.0860670336413651e+01 3.4920529980723913e+01 0 0 -1
826 10 1 -5.5899438604999997e-02 1.8143357102456029e+01 1.9425758114347829e+01 3.7622472750829942e+01 1 0 0
827 10 1 -6.5276132121999994e-02 1.7135930485132214e+01 2.0461383507811369e+01 3.7038374506773636e+01 1 0 0
3005 34 5 3.6606329335999999e-02 2.1465720097631898e+01 1.9801150414915533e+01 3.4941310356663166e+01 0 0 -1
2970 34 1 -4.4063405291000002e-02 2.0057467157372923e+01 2.1246289081325639e+01 3.4071221865719252e+01 0 0 -1
3004 34 5 3.6606329335999999e-02 2.2106217721740457e+01 2.1249529995241748e+01 3.4359073187983427e+01 0 0 -1
2950 34 3 2.6217883716500001e-01 2.1541947408485665e+01 2.1466056492959080e+01 3.6281813706246837e+01 0 0 -1
3008 34 5 2.6531412109000001e-02 2.0781328337916740e+01 2.0192152160215315e+01 3.2235109522962119e+01 0 0 -1
10178 115 1 3.3198802574999998e-02 1.5031932904038317e+01 2.1159875176019604e+01 3.1856120608862145e+01 1 0 1
3011 34 5 2.6264765143000000e-02 1.8051080633807942e+01 1.9254567096318269e+01 3.3189230411695121e+01 0 0 -1
10213 115 5 3.6606329335999999e-02 1.4579742135769731e+01 2.1424880465482037e+01 3.0908874817916058e+01 1 0 1
2946 34 2 -3.1440815438399999e-01 2.2240272974579764e+01 2.2596849823841950e+01 3.6414690875441629e+01 0 0 -1
2939 34 1 6.9063699647000001e-02 2.0793404222313782e+01 2.5907101851646573e+01 3.7832936067592769e+01 0 0 -1
2945 34 2 -3.1440815438399999e-01 1.9478528062480137e+01 2.5420711298706806e+01 3.7813143764317388e+01 0 0 -1
2938 34 1 6.6229863866999999e-02 2.1777073277350809e+01 2.4604078712633090e+01 3.7867712503593033e+01 0 0 -1
2976 34 5 5.7361720903999998e-02 2.0481574641408031e+01 2.3189498053016187e+01 3.8903830069274711e+01 0 0 -1
858 10 5 2.6264765143000000e-02 1.9027531880360229e+01 1.9331479195976748e+01 3.7008148969681557e+01 1 0 0
2940 34 1 6.9063699647000001e-02 2.1375133615669583e+01 2.3746334914063752e+01 3.9073463889236862e+01 0 0 -1
876 10 5 2.2977513104000001e-02 1.6319149370476570e+01 2.0628776080762698e+01 3.7748503730260495e+01 1 0 0
859 10 5 2.6264765143000000e-02 1.7645334390044564e+01 1.8475721027938441e+01 3.7595679580464278e+01 1 0 0
10228 115 5 2.2977513104000001e-02 1.5769972106643602e+01 1.6175556954321337e+01 3.4520323857824977e+01 1 0 1
7937 90 4 -2.6497516144900002e-01 1.7591297154580221e+01 2.5780770251184194e+01 2.8210418825310985e+01 1 0 0
877 10 5 2.2977513104000001e-02 1.7674045729810743e+01 2.1484873748561593e+01 3.6981657888231737e+01 1 0 0
3018 34 5 2.2977513104000001e-02 1.8445372197286733e+01 1.8907879986395262e+01 3.0885880371403218e+01 0 0 -1
2977 34 5 5.7361720903999998e-02 2.2187394727069211e+01 2.2975720502711251e+01 3.9293013574016271e+01 0 0 -1
10155 115 2 -3.1440815438399999e-01 1.4583821703018165e+01 2.3532854183298330e+01 3.2534928730834110e+01 1 0 1
10923 123 5 2.6264765143000000e-02 2.4894304486169993e+01 2.1940809055704666e+01 3.9557245527346737e+01 0 0 0
6508 74 3 2.6217883716500001e-01 1.7833119888997047e+01 2.1002655728430938e+01 2.7687328496479964e+01 1 1 0
10174 115 1 -4.4063405291000002e-02 1.4559242091506082e+01 2.6576141249964081e+01 2.7349121108480531e+01 1 0 1
6509 74 3 2.6217883716500001e-01 1.4556096411307999e+01 1.5527305493560306e+01 2.8130979580429582e+01 1 1 0
10220 115 5 2.6264765143000000e-02 1.5873154658312606e+01 1.7866266717555622e+01 3.2591937510321003e+01 1 0 1