LAMMPS data file via write_data, version 22 Aug 2018, timestep = 6100000

11125 atoms
5 atom types
11000 bonds
6 bond types
20750 angles
11 angle types
28000 dihedrals
15 dihedral types
500 impropers
1 improper types

1.4823512725556441e+01 6.5176487274221017e+01 xlo xhi
1.4823512725556441e+01 6.5176487274221017e+01 ylo yhi
1.4823512725556441e+01 6.5176487274221017e+01 zlo zhi

Masses

1 12.0107
2 15.9994
3 12.0107
4 15.9994
5 1.00794

Pair Coeffs # lj/cut/coul/long

1 0.0951 3.47299
2 0.0957 3.03315
3 0.0951 3.47299
4 0.0957 3.03315
5 0.0152 2.84642

Bond Coeffs # harmonic

1 350 1.53
2 350 1.42
3 350 1.32
4 700 1.22
5 350 1.43
6 350 1.09

Angle Coeffs # harmonic

1 50 109.47
2 50 109.47
3 50 109.47
4 50 109.47
5 50 109.47
6 50 104.51
7 50 120
8 50 120
9 50 120
10 50 109.47
11 50 109.47

Dihedral Coeffs # harmonic

1 0.1111 1 3
2 0.1111 1 3
3 0.3333 1 3
4 0.3333 1 3
5 0.5 -1 2
6 0.5 -1 2
7 0.1667 1 3
8 0.0833 -1 6
9 0.1667 1 3
10 0.0833 -1 6
11 0.1111 1 3
12 0.1111 1 3
13 0.1111 1 3
14 0.1111 1 3
15 0.1111 1 3

Improper Coeffs # harmonic

1 20 0

Atoms # full

2227 26 1 6.9063699647000001e-02 1.7077368744022142e+01 2.0279234106787513e+01 1.9231077740605084e+01 0 0 1
2263 26 5 5.7361720903999998e-02 1.7490728559128023e+01 2.0835782004918606e+01 1.8386826933575691e+01 0 0 1
2235 26 3 2.6217883716500001e-01 1.8178380453751821e+01 2.1307870842575010e+01 2.0963351398457466e+01 0 0 1
2240 26 4 -2.6497516144900002e-01 1.8432649888471605e+01 2.0429482755526223e+01 2.1798035176436464e+01 0 0 1
2233 26 2 -3.1440815438399999e-01 1.6937232008386211e+01 2.1195009393431349e+01 2.0363471485857644e+01 0 0 1
2247 26 1 3.3198802574999998e-02 1.9008873960598422e+01 2.2465566272618176e+01 2.0738264022772483e+01 0 0 1
2276 26 5 3.6606329335999999e-02 1.9550136609779646e+01 2.2251240462571094e+01 1.9832155342025480e+01 0 0 1
3867 44 5 5.7361720903999998e-02 2.0332028376578354e+01 2.4002946012002781e+01 2.4907944701087885e+01 1 1 0
3830 44 1 6.9063699647000001e-02 2.1327804549499348e+01 2.4165608564863241e+01 2.5300305032473979e+01 1 1 0
3828 44 1 6.6229863866999999e-02 2.1823221614612841e+01 2.2831327017549345e+01 2.5843858764293692e+01 1 1 0
3869 44 5 5.7361720903999998e-02 2.0774768169087952e+01 2.1666017426720138e+01 2.4455093680904909e+01 1 1 0
3831 44 1 6.9063699647000001e-02 2.1819698636123817e+01 2.1713044626057727e+01 2.4741562034686321e+01 1 1 0
2262 26 5 5.7361720903999998e-02 1.7714856207105928e+01 1.9460125044359309e+01 1.9491956092380114e+01 0 0 1
2278 26 5 2.7003581479000002e-02 1.7539649600311513e+01 2.3838120928044422e+01 2.0105742975076122e+01 0 0 1
2232 26 2 -3.1440815438399999e-01 1.6986009633424832e+01 1.7809334413643207e+01 1.7917034861646044e+01 0 0 1
3866 44 5 5.7361720903999998e-02 2.2038980145067228e+01 2.4480534287357514e+01 2.4533822076879570e+01 1 1 0
2248 26 1 -4.4063405291000002e-02 1.8374077449804261e+01 2.3875390518449549e+01 2.0776100071083675e+01 0 0 1
2279 26 5 2.7003581479000002e-02 1.7959936848411829e+01 2.4088863905840405e+01 2.1752900874344217e+01 0 0 1
2277 26 5 3.6606329335999999e-02 1.9716133456325078e+01 2.2411575527606139e+01 2.1548151220798207e+01 0 0 1
2249 26 1 -5.2844670757999999e-02 1.9347842157579649e+01 2.5076270274842422e+01 2.0296566999814907e+01 0 0 1
2280 26 5 2.6531412109000001e-02 1.8704796459289234e+01 2.5907110111810013e+01 2.0058243322586858e+01 0 0 1
3833 44 2 -3.1440815438399999e-01 1.9488327144628446e+01 2.2165254706576533e+01 2.6621223152902452e+01 1 1 0
3834 44 2 -3.1440815438399999e-01 2.1317775223591390e+01 2.5075636286765544e+01 2.6401455753499697e+01 1 1 0
3855 44 1 -4.4063405291000002e-02 1.7261827345710962e+01 2.0064165537360196e+01 2.5808922877604282e+01 1 1 0
2250 26 1 -5.5899438604999997e-02 2.0414755055020855e+01 2.5501343025095530e+01 2.1358519517938486e+01 0 0 1
3888 44 5 2.7003581479000002e-02 1.6541003904119584e+01 2.0882938633526919e+01 2.5968804593255694e+01 1 1 0
7136 81 4 -2.6497516144900002e-01 2.5265914675030341e+01 2.3392601854478485e+01 1.5171707189749791e+01 0 0 0
3856 44 1 -5.2844670757999999e-02 1.6360534832328788e+01 1.8779037021730975e+01 2.5723187736573735e+01 1 1 0
2281 26 5 2.6531412109000001e-02 1.9908999773602964e+01 2.4777517832993109e+01 1.9354052269762406e+01 0 0 1
2283 26 5 2.6264765143000000e-02 2.0993086610653712e+01 2.4618010098475402e+01 2.1680963744211528e+01 0 0 1
2282 26 5 2.6264765143000000e-02 1.9840499249955744e+01 2.5919376687242039e+01 2.2222768601908502e+01 0 0 1
3843 44 4 -2.6497516144900002e-01 2.1574076499855089e+01 2.0506310712301893e+01 2.2385959630728856e+01 1 1 0
3889 44 5 2.7003581479000002e-02 1.7700055120432808e+01 2.0229704950045090e+01 2.4810875642217141e+01 1 1 0
2237 26 3 2.6217883716500001e-01 1.7618749957527960e+01 1.7204011552306930e+01 1.6840369714973090e+01 0 0 1
2266 26 5 5.7361720903999998e-02 1.5778596295515229e+01 1.7915694083982665e+01 2.0138744196660191e+01 0 0 1
3891 44 5 2.6531412109000001e-02 1.7062896339798964e+01 1.7896928247283039e+01 2.5724615340323712e+01 1 1 0
8220 93 1 3.3198802574999998e-02 2.1363236504296129e+01 1.5923558751398476e+01 2.6048585274581185e+01 0 1 0
3836 44 2 -3.1440815438399999e-01 2.2611327785165063e+01 2.2062256043391660e+01 2.3572006982760218e+01 1 1 0
8265 93 5 2.2977513104000001e-02 2.0117725473515382e+01 1.8088993408496421e+01 2.2108156796567961e+01 0 1 0
2265 26 5 5.7361720903999998e-02 1.6383965062255260e+01 1.9498665567191711e+01 1.6619303043564216e+01 0 0 1
2226 26 1 6.6229863866999999e-02 1.5729610771518601e+01 1.9644617238594428e+01 1.8773123314177202e+01 0 0 1
2228 26 1 6.9063699647000001e-02 1.6044835765194129e+01 1.8792539600993376e+01 1.7477475206882627e+01 0 0 1
8257 93 5 2.7003581479000002e-02 2.1962474172242018e+01 1.7893637717206804e+01 2.5348816705543271e+01 0 1 0
8221 93 1 -4.4063405291000002e-02 2.2242791090388852e+01 1.7161657430496597e+01 2.6138283752808626e+01 0 1 0
3868 44 5 5.7361720903999998e-02 2.2039733314456154e+01 2.0676888624920693e+01 2.5043736395734143e+01 1 1 0
8263 93 5 2.2977513104000001e-02 2.0660904643206276e+01 1.7615079421947424e+01 2.0423986578389979e+01 0 1 0
1770 20 5 2.2977513104000001e-02 3.6861270189236961e+01 1.5297577782915793e+01 1.5907190454899466e+01 0 0 1
7346 83 5 2.7003581479000002e-02 1.6701475480231828e+01 2.3134050651725595e+01 2.5905362221574279e+01 1 0 0
7317 83 1 -4.4063405291000002e-02 1.6111056271841345e+01 2.4104804558545396e+01 2.5971203192639635e+01 1 0 0
3839 44 3 2.6217883716500001e-01 2.0573774104363878e+01 2.6116743908355097e+01 2.6132334195071223e+01 1 1 0
7345 83 5 2.7003581479000002e-02 1.6661949729946610e+01 2.4923155078660844e+01 2.5610732818532576e+01 1 0 0
8264 93 5 2.2977513104000001e-02 1.8953265752903018e+01 1.7848172196076781e+01 2.0702182810695646e+01 0 1 0
8214 93 1 -6.5276132121999994e-02 1.9834718044600429e+01 1.7513007685536358e+01 2.1176974055158574e+01 0 1 0
3841 44 4 -2.6497516144900002e-01 1.9364313273269026e+01 2.6020971749388874e+01 2.6253686740394109e+01 1 1 0
3840 44 3 2.6217883716500001e-01 2.2601157959833436e+01 2.1068321553520029e+01 2.2659558918650280e+01 1 1 0
3890 44 5 2.6531412109000001e-02 1.5705676629004174e+01 1.8672487966080052e+01 2.6624510983263246e+01 1 1 0
3892 44 5 2.6264765143000000e-02 1.6135733622930584e+01 1.8741408499654206e+01 2.3515228735699999e+01 1 1 0
3857 44 1 -5.5899438604999997e-02 1.5472618986297974e+01 1.8634933451244429e+01 2.4385961250508867e+01 1 1 0
855 10 5 2.7003581479000002e-02 3.1918243103499602e+01 2.6977554095396133e+01 2.2440300614871141e+01 1 0 0
7148 81 1 -4.4063405291000002e-02 2.1067620580746510e+01 1.9874579249748734e+01 1.6184953532738014e+01 0 0 0
3893 44 5 2.6264765143000000e-02 1.5053156762849571e+01 1.7672443756588102e+01 2.4293445740526735e+01 1 1 0
8258 93 5 2.7003581479000002e-02 2.1940720432120870e+01 1.7742267889990327e+01 2.7031260046414978e+01 0 1 0
7182 81 5 2.7003581479000002e-02 2.0832771602364318e+01 1.8881471106973709e+01 1.6559551412385410e+01 0 0 0
7183 81 5 2.6531412109000001e-02 1.9901598983223920e+01 2.0938626911796966e+01 1.7696269373737984e+01 0 0 0
7149 81 1 -5.2844670757999999e-02 1.9864292581597436e+01 2.0781255335608687e+01 1.6598043260102720e+01 0 0 0
8256 93 5 3.6606329335999999e-02 2.0351876775069243e+01 1.6283418102937908e+01 2.5853200273839303e+01 0 1 0
7147 81 1 3.3198802574999998e-02 2.2443558415811822e+01 2.0341707335850515e+01 1.6815894164665032e+01 0 0 0
8243 93 5 2.6531412109000001e-02 1.8695865469005568e+01 1.6719236388037352e+01 2.3419161103682253e+01 0 1 0
2264 26 5 5.7361720903999998e-02 1.5212422412719269e+01 1.8236813444099887e+01 1.7080929669377301e+01 0 0 1
8271 93 5 2.2977513104000001e-02 2.6370145485169392e+01 1.6897598952308087e+01 2.6737543448800409e+01 0 1 0
97 2 2 -3.1440815438399999e-01 3.2428195613084085e+01 1.5166636638448958e+01 2.4454898592047805e+01 0 0 0
8213 93 1 -5.5899438604999997e-02 1.9610384948979124e+01 1.6044601345546692e+01 2.1561945179821727e+01 0 1 0
2270 26 5 3.6606329335999999e-02 1.6644059245299946e+01 1.5402033918247657e+01 1.7386672227769310e+01 0 0 1
7202 81 5 2.2977513104000001e-02 2.9159837493533153e+01 2.7015048055467116e+01 1.5388448008767082e+01 0 0 0
2251 26 1 -6.5276132121999994e-02 2.1466737480362958e+01 2.6570011571568326e+01 2.0858752937795643e+01 0 0 1
1703 20 3 2.6217883716500001e-01 3.9760098944146279e+01 2.1066680108355403e+01 2.1915399789754222e+01 0 0 1
2300 26 5 2.2977513104000001e-02 2.2242936969178970e+01 2.6712333858052986e+01 2.1572590158588149e+01 0 0 1
2301 26 5 2.2977513104000001e-02 2.1895607714467218e+01 2.6194378438846744e+01 1.9983410658638519e+01 0 0 1
2239 26 4 -2.6497516144900002e-01 1.8431728968917863e+01 1.7849995327477302e+01 1.6134347710291198e+01 0 0 1
8244 93 5 2.6531412109000001e-02 1.7554731112153018e+01 1.6117838547633173e+01 2.2187520512678550e+01 0 1 0
3229 37 1 -5.5899438604999997e-02 3.4808318917869286e+01 2.7372591112863208e+01 1.4876966482156746e+01 0 1 0
7191 81 5 2.6531412109000001e-02 2.9399551215789863e+01 2.3214598327004744e+01 1.4858054256152588e+01 0 0 0
7179 81 5 3.6606329335999999e-02 2.2206765599227168e+01 2.0737662960241529e+01 1.7804371496305727e+01 0 0 0
7199 81 5 2.2977513104000001e-02 1.8939979189263337e+01 2.3882176256326659e+01 1.5284558969557933e+01 0 0 0
7151 81 1 -6.5276132121999994e-02 1.8832206986286561e+01 2.3059893990254839e+01 1.5948693375529043e+01 0 0 0
7185 81 5 2.6264765143000000e-02 2.0896409600762208e+01 2.2631083445630040e+01 1.6304513798227291e+01 0 0 0
7180 81 5 3.6606329335999999e-02 2.2790700487936199e+01 2.1150671310033534e+01 1.6190972514298913e+01 0 0 0
154 2 5 2.6264765143000000e-02 2.4959733850605915e+01 1.6193557362283755e+01 1.9549920349141150e+01 0 0 0
7137 81 4 -2.6497516144900002e-01 2.3428633362198156e+01 1.8609534869782895e+01 1.7871131107122253e+01 0 0 0
7131 81 3 2.6217883716500001e-01 2.3398921919354912e+01 1.9329884395711808e+01 1.6893804700720509e+01 0 0 0
7150 81 1 -5.5899438604999997e-02 2.0078577073589866e+01 2.2132371123201224e+01 1.5824063275286047e+01 0 0 0
8245 93 5 2.6264765143000000e-02 2.0493219727893603e+01 1.5700033071297511e+01 2.1997439906252009e+01 0 1 0
8255 93 5 3.6606329335999999e-02 2.1703942503472170e+01 1.5393297489676740e+01 2.5168391591947177e+01 0 1 0
8246 93 5 2.6264765143000000e-02 1.9490882153876495e+01 1.5417517077389300e+01 2.0690909173725188e+01 0 1 0
3832 44 1 6.9063699647000001e-02 2.0856898852876167e+01 2.2412853273930089e+01 2.7034202430154107e+01 1 1 0
3258 37 5 2.7003581479000002e-02 3.3524249407122113e+01 2.4964702122938711e+01 1.6135352527739965e+01 0 1 0
7384 83 5 2.6264765143000000e-02 1.5784907990777894e+01 2.2703490411677567e+01 2.3691276880178513e+01 1 0 0
7200 81 5 2.2977513104000001e-02 1.7879372005162331e+01 2.2525492087078156e+01 1.5694858324582688e+01 0 0 0
117 2 1 -4.4063405291000002e-02 2.6723215049832994e+01 1.5317411662028057e+01 2.1659878417003785e+01 0 0 0
95 2 2 -3.1440815438399999e-01 2.9460870281679256e+01 1.4829201661205255e+01 2.2518844287406178e+01 0 0 0
118 2 1 -5.2844670757999999e-02 2.5140385534822506e+01 1.5338377089290239e+01 2.1467445154021068e+01 0 0 0
11063 125 1 3.3198802574999998e-02 3.9895411135907288e+01 2.2538546763419564e+01 1.7199994647843802e+01 0 1 1
8212 93 1 -5.2844670757999999e-02 1.8508915653242880e+01 1.5976006623556193e+01 2.2638676545081090e+01 0 1 0
858 10 5 2.6264765143000000e-02 3.1601862086446328e+01 2.7317065198813417e+01 1.9727020534841031e+01 1 0 0
7198 81 5 2.2977513104000001e-02 1.8782200786120750e+01 2.3409037302330404e+01 1.6937107195879008e+01 0 0 0
7154 81 1 -5.2844670757999999e-02 2.9014260235646105e+01 2.4207895053100604e+01 1.5204089409924995e+01 0 0 0
3829 44 1 6.9063699647000001e-02 2.3315560975200427e+01 2.3001641223663391e+01 2.6271900233927447e+01 1 1 0
2271 26 5 3.6606329335999999e-02 1.7175386709954921e+01 1.5577524065021827e+01 1.5733902577834689e+01 0 0 1
7181 81 5 2.7003581479000002e-02 2.1158076557388060e+01 1.9766136843564368e+01 1.5098335528738115e+01 0 0 0
244 3 5 2.6264765143000000e-02 2.2804748716082756e+01 2.4975286114728441e+01 1.6182261329242262e+01 1 0 0
2229 26 1 6.9063699647000001e-02 1.5064587775627530e+01 1.8747513098554126e+01 1.9902658665770620e+01 0 0 1
207 3 1 -5.2844670757999999e-02 2.2260762797270402e+01 2.6948523505874313e+01 1.5843139752680859e+01 1 0 0
2243 26 1 3.3198802574999998e-02 1.7495620663327518e+01 1.5771840793716954e+01 1.6747994280876814e+01 0 0 1
3873 44 5 3.6606329335999999e-02 2.2339234314788499e+01 2.7186270546071931e+01 2.6095082006489200e+01 1 1 0
1720 20 1 -5.2844670757999999e-02 3.9701318029658985e+01 1.5237987535894712e+01 1.5124019853237414e+01 0 0 1
7184 81 5 2.6531412109000001e-02 1.8941360432120252e+01 2.0233128827177385e+01 1.6435292884797772e+01 0 0 0
208 3 1 -5.5899438604999997e-02 2.2997867169318233e+01 2.5652987286162485e+01 1.5339270502626874e+01 1 0 0
3874 44 5 2.7003581479000002e-02 2.1477508476349094e+01 2.7061426956338476e+01 2.3710896056081495e+01 1 1 0
168 2 5 2.2977513104000001e-02 2.2627053522755485e+01 1.5875352182120333e+01 2.0334251638391503e+01 0 0 0
120 2 1 -6.5276132121999994e-02 2.3048607982974527e+01 1.5001492736455146e+01 1.9836692771386314e+01 0 0 0
8239 93 5 3.6606329335999999e-02 1.6957778592052414e+01 1.5102240633087273e+01 2.4706370525887817e+01 0 1 0
151 2 5 2.7003581479000002e-02 2.7091643380569785e+01 1.6118992597751120e+01 2.1039747579721634e+01 0 0 0
7129 81 2 -3.1440815438399999e-01 2.6820410591132735e+01 2.1878841611431874e+01 1.5219026456169354e+01 0 0 0
2244 26 1 -4.4063405291000002e-02 1.8816072305082670e+01 1.4990350394894584e+01 1.6999450135987978e+01 0 0 1
159 2 5 2.7003581479000002e-02 3.7001832703492227e+01 1.7372165512188431e+01 2.3122161780341635e+01 0 0 0
8270 93 5 2.2977513104000001e-02 2.6743398650347203e+01 1.8596949764641124e+01 2.6849226597404673e+01 0 1 0
133 2 5 5.7361720903999998e-02 3.1446908088703584e+01 1.5316500747815255e+01 2.1817072519087436e+01 0 0 0
127 2 5 5.7361720903999998e-02 3.0396851165856980e+01 1.5202242625710008e+01 2.4839389241661724e+01 0 0 0
7159 81 5 5.7361720903999998e-02 2.9040299789921946e+01 1.9413221459353689e+01 1.5451187050747343e+01 0 0 0
9062 102 5 2.6264765143000000e-02 3.1926530006163496e+01 1.6060308600968000e+01 1.5449875780694532e+01 0 0 1
3864 44 5 5.7361720903999998e-02 2.3920488642297059e+01 2.3325225572853434e+01 2.5416803454423807e+01 1 1 0
172 2 5 2.2977513104000001e-02 3.5163792977969862e+01 1.5333068975844835e+01 1.9139096682537719e+01 0 0 0
7121 81 1 6.6229863866999999e-02 2.6848034058199222e+01 1.9468458228817582e+01 1.5440171365304510e+01 0 0 0
8607 97 5 2.6531412109000001e-02 3.1250564952631468e+01 2.0144805505875773e+01 2.6479107158032889e+01 0 1 0
2272 26 5 2.7003581479000002e-02 1.9556659198652849e+01 1.5115617606782331e+01 1.6213794587657322e+01 0 0 1
7157 81 5 5.7361720903999998e-02 2.6450901445009528e+01 1.7264405852961467e+01 1.5277545268924666e+01 0 0 0
2036 23 5 2.2977513104000001e-02 2.7884319779079071e+01 2.6877242833386070e+01 2.2249294778268208e+01 0 0 0
3909 44 5 2.2977513104000001e-02 2.5182488071832893e+01 2.2711181506205659e+01 1.8521217814638181e+01 1 1 0
8222 93 1 -5.2844670757999999e-02 2.3786677339614151e+01 1.6964858370684397e+01 2.6033948044174203e+01 0 1 0
3897 44 5 2.7003581479000002e-02 2.3897680320271814e+01 2.1342521080038455e+01 2.0290362020927077e+01 1 1 0
3895 44 5 3.6606329335999999e-02 2.3779228994170751e+01 1.9446030264824355e+01 2.1954468646405793e+01 1 1 0
3859 44 1 3.3198802574999998e-02 2.3919355341078486e+01 2.0476088078661558e+01 2.2278142042068168e+01 1 1 0
8260 93 5 2.6531412109000001e-02 2.4077730740923172e+01 1.6363145784786088e+01 2.6867331529940273e+01 0 1 0
2021 23 5 2.6531412109000001e-02 2.6184323273118700e+01 2.7163229188361889e+01 2.0019792781204146e+01 0 0 0
3910 44 5 2.2977513104000001e-02 2.4370004663923503e+01 2.4196988176952956e+01 1.9114790048862197e+01 1 1 0
7126 81 2 -3.1440815438399999e-01 2.4332351897015460e+01 1.9224142266480779e+01 1.5971920402143972e+01 0 0 0
94 2 1 6.9063699647000001e-02 3.0519415211393273e+01 1.5798863760677484e+01 2.2164064775265953e+01 0 0 0
8224 93 1 -6.5276132121999994e-02 2.6107670263621358e+01 1.7841274869300975e+01 2.6262960360700752e+01 0 1 0
3899 44 5 2.6531412109000001e-02 2.4037324317184531e+01 2.3440600568238324e+01 2.1585227208343998e+01 1 1 0
3908 44 5 2.2977513104000001e-02 2.6026532032922635e+01 2.4329139008728326e+01 1.8440045148502684e+01 1 1 0
3863 44 1 -6.5276132121999994e-02 2.5343182222312741e+01 2.3677417939401725e+01 1.9003812088719691e+01 1 1 0
8259 93 5 2.6531412109000001e-02 2.4038137248286148e+01 1.6467980673610320e+01 2.5144651171324220e+01 0 1 0
3835 44 2 -3.1440815438399999e-01 2.3914448831805970e+01 2.1748201491621831e+01 2.6856669291303412e+01 1 1 0
3894 44 5 3.6606329335999999e-02 2.4612216087904343e+01 2.0451221661470555e+01 2.3150594753138087e+01 1 1 0
3837 44 3 2.6217883716500001e-01 2.5181925695514337e+01 2.1860198338590244e+01 2.7219073676123351e+01 1 1 0
129 2 5 5.7361720903999998e-02 2.9683013617980773e+01 1.8238157389809906e+01 2.4600775705390614e+01 0 0 0
3860 44 1 -4.4063405291000002e-02 2.4569752131763970e+01 2.1383422074848280e+01 2.1164227176737697e+01 1 1 0
3896 44 5 2.7003581479000002e-02 2.5524137838180735e+01 2.0940554880164619e+01 2.0833175022849325e+01 1 1 0
3898 44 5 2.6531412109000001e-02 2.5457235296945420e+01 2.2858386096564296e+01 2.2390178818438137e+01 1 1 0
3861 44 1 -5.2844670757999999e-02 2.4962584074540572e+01 2.2819857140321133e+01 2.1438322946958866e+01 1 1 0
103 2 4 -2.6497516144900002e-01 2.6762068312763439e+01 1.8688870958109113e+01 2.2559228835456423e+01 0 0 0
7163 81 5 5.7361720903999998e-02 2.5889853737073068e+01 1.8730403939068697e+01 1.7323793703607713e+01 0 0 0
7164 81 5 5.7361720903999998e-02 2.5685058977602722e+01 2.0532915015434895e+01 1.6975483305368289e+01 0 0 0
3862 44 1 -5.5899438604999997e-02 2.5914451678098668e+01 2.3525472532604262e+01 2.0408988870528418e+01 1 1 0
7127 81 2 -3.1440815438399999e-01 2.8260596651951573e+01 1.8339098913771000e+01 1.7035469025664270e+01 0 0 0
101 2 3 2.6217883716500001e-01 2.7794556442535260e+01 1.9087358567019113e+01 2.3096792814283429e+01 0 0 0
96 2 2 -3.1440815438399999e-01 2.8871925467668301e+01 1.8344178646399804e+01 2.2706936977322119e+01 0 0 0
107 2 1 3.3198802574999998e-02 2.7938523351481521e+01 2.0359822590140340e+01 2.3862433335722450e+01 0 0 0
108 2 1 -4.4063405291000002e-02 2.9149050845098593e+01 2.1207306054905111e+01 2.3475186236299120e+01 0 0 0
3901 44 5 2.6264765143000000e-02 2.6860457577262316e+01 2.2972334912802641e+01 2.0358782583923713e+01 1 1 0
3900 44 5 2.6264765143000000e-02 2.6046617067863558e+01 2.4512657062929701e+01 2.0798515349494746e+01 1 1 0
136 2 5 2.7003581479000002e-02 2.9992815350461981e+01 2.0665036443538646e+01 2.3691892878051256e+01 0 0 0
135 2 5 3.6606329335999999e-02 2.7940790675321217e+01 1.9986245647534499e+01 2.4847493156275490e+01 0 0 0
134 2 5 3.6606329335999999e-02 2.7005572861699612e+01 2.0877714968226833e+01 2.3747184431450101e+01 0 0 0
139 2 5 2.6531412109000001e-02 2.9004605903699129e+01 2.2197890690743087e+01 2.5435068177452870e+01 0 0 0
109 2 1 -5.2844670757999999e-02 2.9115836330490588e+01 2.2518864949081525e+01 2.4361933664289737e+01 0 0 0
137 2 5 2.7003581479000002e-02 2.9077217579147021e+01 2.1582389509922773e+01 2.2430216551492549e+01 0 0 0
7132 81 3 2.6217883716500001e-01 2.9414135357409300e+01 1.8219146816091449e+01 1.7764866381872686e+01 0 0 0
3842 44 4 -2.6497516144900002e-01 2.6039796431906204e+01 2.1401551062994056e+01 2.6492884787350555e+01 1 1 0
92 2 1 6.9063699647000001e-02 2.9464314644497243e+01 1.7598252606382687e+01 2.3768631450443547e+01 0 0 0
7165 81 5 3.6606329335999999e-02 2.8553714940238642e+01 1.8237613012809444e+01 1.9631400624461499e+01 0 0 0
128 2 5 5.7361720903999998e-02 2.8703373472900907e+01 1.6949408941171228e+01 2.4129126116043565e+01 0 0 0
7138 81 1 3.3198802574999998e-02 2.9488831680924321e+01 1.8596508145433781e+01 1.9210046861905511e+01 0 0 0
7139 81 1 -4.4063405291000002e-02 2.9667899394470780e+01 2.0102508754401509e+01 1.9523609963354321e+01 0 0 0
7168 81 5 2.7003581479000002e-02 2.9480116448498091e+01 2.0229498581405380e+01 2.0569974556787670e+01 0 0 0
7167 81 5 2.7003581479000002e-02 2.8937982707665359e+01 2.0686767300753036e+01 1.8938191860557584e+01 0 0 0
110 2 1 -5.5899438604999997e-02 3.0432514870740992e+01 2.3357352923094346e+01 2.4027591513372169e+01 0 0 0
132 2 5 5.7361720903999998e-02 3.0189263015363487e+01 1.6342979935549508e+01 2.1322264771181413e+01 0 0 0
138 2 5 2.6531412109000001e-02 2.8278050394214020e+01 2.3170976968787286e+01 2.4016882772210231e+01 0 0 0
173 2 1 -6.5276132121999994e-02 3.0468272373613903e+01 2.4514575586476351e+01 2.5011637379145302e+01 0 0 0
90 2 1 6.6229863866999999e-02 3.0749150276636882e+01 1.6790031881851224e+01 2.3363459294865724e+01 0 0 0
7134 81 4 -2.6497516144900002e-01 3.0285531479039147e+01 1.7491966604293449e+01 1.7322093084899961e+01 0 0 0
7166 81 5 3.6606329335999999e-02 3.0332786223066151e+01 1.8117041415072229e+01 1.9752621415941576e+01 0 0 0
7140 81 1 -5.2844670757999999e-02 3.1132841088947675e+01 2.0606367360110916e+01 1.9253228276742160e+01 0 0 0
91 2 1 6.9063699647000001e-02 3.1213298468380355e+01 1.5888436443129130e+01 2.4585599977839472e+01 0 0 0
178 2 5 2.2977513104000001e-02 3.1411171151290393e+01 2.5116791509349873e+01 2.4809551599062619e+01 0 0 0
7125 81 1 6.9063699647000001e-02 2.5663964313651910e+01 1.9522556861394087e+01 1.6570467349252347e+01 0 0 0
7160 81 5 5.7361720903999998e-02 2.8277195724935439e+01 2.0395744809863434e+01 1.6694690468638658e+01 0 0 0
7203 81 5 2.2977513104000001e-02 2.9659157519691256e+01 2.6694855793245662e+01 1.6916705074292672e+01 0 0 0
7156 81 1 -6.5276132121999994e-02 2.9961923040280368e+01 2.6646161343045414e+01 1.5936498906672144e+01 0 0 0
7123 81 1 6.9063699647000001e-02 2.8237642535502438e+01 1.9482430559415313e+01 1.6166886973491373e+01 0 0 0
7193 81 5 2.6264765143000000e-02 3.0818684176440101e+01 2.4757054511015639e+01 1.6291735362984024e+01 0 0 0
126 2 5 5.7361720903999998e-02 3.1276021074647790e+01 1.6595024361015888e+01 2.5427126173704444e+01 0 0 0
8269 93 5 2.2977513104000001e-02 2.6537693231419965e+01 1.7806357825618921e+01 2.5295235695169545e+01 0 1 0
152 2 5 2.6531412109000001e-02 2.4736124338229949e+01 1.6301940086714566e+01 2.1818128225191824e+01 0 0 0
8261 93 5 2.6264765143000000e-02 2.4464715975451952e+01 1.8846049893605603e+01 2.5329420485569230e+01 0 1 0
8223 93 1 -5.5899438604999997e-02 2.4618304148186205e+01 1.8218551677451938e+01 2.6165564552343596e+01 0 1 0
177 2 5 2.2977513104000001e-02 3.0316394919131504e+01 2.4273942368185196e+01 2.6078700432090514e+01 0 0 0
150 2 5 2.7003581479000002e-02 2.6896466432880835e+01 1.5629570196940154e+01 2.2702138611103226e+01 0 0 0
7192 81 5 2.6531412109000001e-02 2.8465464603936674e+01 2.4028479073407272e+01 1.6110784087896949e+01 0 0 0
7155 81 1 -5.5899438604999997e-02 3.0240233867904777e+01 2.5129531141647114e+01 1.5487437284033941e+01 0 0 0
2267 26 5 5.7361720903999998e-02 1.4905170969023454e+01 1.9393457045117849e+01 2.0725909295159035e+01 0 0 1
131 2 5 5.7361720903999998e-02 3.1407131913751062e+01 1.8621652962302164e+01 2.2468433188176519e+01 0 0 0
1752 20 5 2.7003581479000002e-02 3.9969321880251627e+01 1.5502571088367944e+01 1.7234815107363691e+01 0 0 1
11097 125 5 2.7003581479000002e-02 3.9423141758835840e+01 2.0763211361801218e+01 1.8217346120033486e+01 0 1 1
175 2 5 2.6264765143000000e-02 3.0373501088670707e+01 2.3730267771955091e+01 2.3020541921444991e+01 0 0 0
7169 81 5 2.6531412109000001e-02 3.1846359716365303e+01 1.9975260008746215e+01 1.9807873531885825e+01 0 0 0
11053 125 4 -2.6497516144900002e-01 3.9982064775842176e+01 2.3991734132367643e+01 1.8883893804726910e+01 0 1 1
7208 81 5 2.2977513104000001e-02 2.9321319686035402e+01 2.2993155374521052e+01 1.9499189229001733e+01 0 0 0
1711 20 1 -5.2844670757999999e-02 3.9950553051951289e+01 2.1894015975509468e+01 2.5772395526860372e+01 0 0 1
2231 26 2 -3.1440815438399999e-01 1.5283531423298113e+01 2.1626759097122118e+01 1.7273072853751216e+01 0 0 1
888 10 5 2.2977513104000001e-02 3.4798892759836832e+01 2.0733702261270526e+01 2.6847267198717571e+01 1 0 0
174 2 5 2.6264765143000000e-02 3.1424255319336854e+01 2.2787131433045346e+01 2.4244341618518526e+01 0 0 0
1737 20 5 3.6606329335999999e-02 3.9852204409431693e+01 2.2763225719256674e+01 2.3009361059659945e+01 0 0 1
7204 81 1 -6.5276132121999994e-02 3.0351626062009885e+01 2.3101497770976945e+01 1.9072820040093152e+01 0 0 0
7207 81 5 2.2977513104000001e-02 3.0322305416774057e+01 2.2968080331360554e+01 1.8015736200133443e+01 0 0 0
7209 81 5 2.2977513104000001e-02 3.0765016904150656e+01 2.4071091554458491e+01 1.9263989793415206e+01 0 0 0
7170 81 5 2.6531412109000001e-02 3.1398393015684221e+01 2.0483188952098608e+01 1.8206003300462374e+01 0 0 0
7141 81 1 -5.5899438604999997e-02 3.1342165765176567e+01 2.2087361335358423e+01 1.9640893332979338e+01 0 0 0
176 2 5 2.2977513104000001e-02 2.9714766748646525e+01 2.5255610480504735e+01 2.4821068344128697e+01 0 0 0
7206 81 5 2.6264765143000000e-02 3.2331424735924372e+01 2.2362891245958981e+01 1.9236726266356992e+01 0 0 0
3904 44 5 2.2977513104000001e-02 2.6796150572141180e+01 2.7278623491877624e+01 2.7109381191136670e+01 1 1 0
3886 44 5 3.6606329335999999e-02 1.9159309746930951e+01 1.9526694165065575e+01 2.6668713247146879e+01 1 1 0
3261 37 5 2.6264765143000000e-02 3.4695174267043100e+01 2.7300037742404513e+01 1.5936778284088415e+01 0 1 0
814 10 3 2.6217883716500001e-01 3.5803358003569642e+01 2.7207927793551875e+01 2.6828741832416540e+01 1 0 0
170 2 5 2.2977513104000001e-02 3.4277314268547030e+01 1.6890569683750144e+01 1.9390248376427277e+01 0 0 0
3865 44 5 5.7361720903999998e-02 2.3410614740653266e+01 2.3819377872671936e+01 2.7058042438726940e+01 1 1 0
874 10 5 2.6264765143000000e-02 3.6543096403447777e+01 2.2789074745996871e+01 2.3871050623979521e+01 1 0 0
856 10 5 2.6531412109000001e-02 3.3710424020321362e+01 2.6720478746980756e+01 2.0719956958063328e+01 1 0 0
2289 26 5 2.6531412109000001e-02 1.5698008081410684e+01 2.6349987844906522e+01 1.8341085680860452e+01 0 0 1
163 2 5 2.6264765143000000e-02 3.4813244234696029e+01 1.5953920579213499e+01 2.1565847909701994e+01 0 0 0
7319 83 1 -5.5899438604999997e-02 1.5130130073090431e+01 2.3605255305768516e+01 2.3678951788087684e+01 1 0 0
3226 37 1 3.3198802574999998e-02 3.5394750284027957e+01 2.4111153903579165e+01 1.5424526846235668e+01 0 1 0
171 2 5 2.2977513104000001e-02 3.6003233133266249e+01 1.6849544038350313e+01 1.8852929158630410e+01 0 0 0
854 10 5 2.7003581479000002e-02 3.3575691328211619e+01 2.7110386625258876e+01 2.2886718901031340e+01 1 0 0
3256 37 5 3.6606329335999999e-02 3.5291116971384923e+01 2.3247420459364506e+01 1.6070969021786201e+01 0 1 0
11065 125 1 -5.2844670757999999e-02 3.7967803642829196e+01 2.0895607375468146e+01 1.6640102235728470e+01 0 1 1
125 2 1 -6.5276132121999994e-02 3.5173238588099650e+01 1.6373286510561975e+01 1.9468571092888464e+01 0 0 0
2295 26 5 2.7003581479000002e-02 1.5056402761581769e+01 1.5447458292903947e+01 1.9615494966426162e+01 0 0 1
833 10 1 3.3198802574999998e-02 3.6436172089262357e+01 2.6835853859035382e+01 2.5620736164273975e+01 1 0 0
7737 87 5 2.2977513104000001e-02 1.7350939430322448e+01 2.7031110534780019e+01 2.3993954067510035e+01 1 0 0
836 10 1 -5.5899438604999997e-02 3.6002620672288799e+01 2.3577876374560752e+01 2.3389406349785766e+01 1 0 0
3227 37 1 -4.4063405291000002e-02 3.4018249703377549e+01 2.4744914099174451e+01 1.5190493302520858e+01 0 1 0
122 2 1 -4.4063405291000002e-02 3.6190657487448988e+01 1.8121312123956919e+01 2.2857239401783421e+01 0 0 0
242 3 5 2.6531412109000001e-02 2.2675861297516136e+01 2.7070528739144340e+01 1.6846761773339679e+01 1 0 0
11066 125 1 -5.5899438604999997e-02 3.6878513689448184e+01 1.9896454560802351e+01 1.7116737251591420e+01 0 1 1
11114 125 5 2.2977513104000001e-02 3.4995428169200423e+01 2.1139972263128620e+01 1.7221434441109572e+01 0 1 1
8201 93 3 2.6217883716500001e-01 2.1321950674045731e+01 1.4979158339484286e+01 2.7087882168532254e+01 0 1 0
8605 97 5 2.7003581479000002e-02 3.2401988063170904e+01 1.8057461824595585e+01 2.7204591791579368e+01 0 1 0
104 2 4 -2.6497516144900002e-01 3.3388624631600464e+01 1.5309337186256364e+01 2.6449305025947858e+01 0 0 0
11100 125 5 2.6531412109000001e-02 3.7456367642751502e+01 2.1716571039249263e+01 1.6120406662861548e+01 0 1 1
870 10 5 2.7003581479000002e-02 3.5910442014199148e+01 2.4801377850650049e+01 2.5997588270178195e+01 1 0 0
9072 102 5 2.2977513104000001e-02 3.3129977311380060e+01 1.7531182918593245e+01 1.7122235157361828e+01 0 0 1
9070 102 5 2.2977513104000001e-02 3.3504062983650130e+01 1.5795017966334358e+01 1.7306458818166689e+01 0 0 1
1719 20 1 -4.4063405291000002e-02 3.9908035732918577e+01 1.6138741149578767e+01 1.6342288357497907e+01 0 0 1
156 2 5 3.6606329335999999e-02 3.5380822640258828e+01 1.8278370389678077e+01 2.4917944054257966e+01 0 0 0
11102 125 5 2.6264765143000000e-02 3.7382220658041902e+01 1.9202612054631633e+01 1.7840824657930185e+01 0 1 1
123 2 1 -5.2844670757999999e-02 3.5794316074182092e+01 1.7868744240493651e+01 2.1395354789132305e+01 0 0 0