LAMMPS data file for Unnamed model (force field Dreiding.params+ )

89  atoms
88  bonds
166  angles
224  dihedrals
4  impropers

5  atom types
6  bond types
11  angle types
15  dihedral types
1  improper types

-10 10 xlo xhi
-10 10 ylo yhi
-10 10 zlo zhi

Masses

    1    12.0107   # C
    2    15.9994   # O
    4    15.9994   # O
    3    12.0107   # C
    5    1.00794   # H

Atoms

    1 1   1     0.066229863867      0.537356603   -0.221060469    0.337935524
    2 1   1     0.069063699647      1.910085430    0.491267944    0.115757268
    3 1   1     0.069063699647      0.650340795   -1.776373015    0.444725972
    4 1   1     0.069063699647     -0.081936021    0.357317573    1.649502839
    5 1   1     0.069063699647     -0.440608583    0.029904962   -0.859817205
    6 1   2    -0.314408154384     -0.864462442    1.367844754   -1.026490994
    7 1   2    -0.314408154384      1.598033125   -2.252986503    1.375570473
    8 1   2    -0.314408154384      2.581448863    0.224094921   -1.104153893
    9 1   2    -0.314408154384      0.675473618    0.037097932    2.804248790
   10 1   3     0.262178837165      3.706570164   -0.568489028   -0.943633049
   11 1   3     0.262178837165     -1.706598070    1.505664260   -2.127978363
   12 1   3     0.262178837165      1.835050546   -3.628713430    1.343866796
   13 1   3     0.262178837165      0.905973662    1.114519376    3.645695964
   14 1   4    -0.264975161449      2.913019363   -4.006931931    1.774609412
   15 1   4    -0.264975161449      3.564157891   -1.757156030   -0.699283547
   16 1   4    -0.264975161449      1.657214936    2.015443579    3.300692977
   17 1   4    -0.264975161449     -1.322390115    1.209870449   -3.248686858
   18 1   1     0.033198802575      0.901655008   -4.700138855    0.794133183
   19 1   1    -0.044063405291      0.812818225   -6.015105939    1.606778192
   20 1   1    -0.052844670758      1.431370192   -7.274569298    0.958003892
   21 1   1    -0.055899438605      2.638802311   -7.851823061    1.706360497
   22 1   1     0.033198802575      5.106106027    0.003398422   -0.901908034
   23 1   1    -0.044063405291      5.613726936    0.830297315   -2.098779242
   24 1   1    -0.052844670758      7.139550388    1.041804525   -2.009301757
   25 1   1    -0.055899438605      7.808109491    1.788766710   -3.170577622
   26 1   1    -0.065276132122      9.333459365    1.813926608   -3.035639398
   27 1   1     0.033198802575     -3.031233768    2.199216508   -1.950300687
   28 1   1    -0.044063405291     -4.173126754    1.807998774   -2.913148330
   29 1   1    -0.052844670758     -4.298955776    2.641830188   -4.204429051
   30 1   1    -0.055899438605     -5.738506868    2.699161607   -4.743678973
   31 1   1    -0.065276132122     -5.895094103    3.477420428   -6.047833039
   32 1   1     0.033198802575      0.378117918    1.044694510    5.053422000
   33 1   1    -0.044063405291      0.441523467    2.306878669    5.935938590
   34 1   1    -0.052844670758      1.733833550    2.520371965    6.749839460
   35 1   1    -0.055899438605      1.482835607    3.251175280    8.080219019
   36 1   1    -0.065276132122      2.746106975    3.620438515    8.852734106
   37 1   5     0.057361720904      1.713991017    1.585971218    0.097559632
   38 1   5     0.057361720904      2.558248596    0.351978422    1.014778333
   39 1   5     0.057361720904     -0.356299920   -2.150816200    0.737230547
   40 1   5     0.057361720904      0.889599778   -2.188528988   -0.563995705
   41 1   5     0.057361720904     -0.264865637    1.451581128    1.517959452
   42 1   5     0.057361720904     -1.091802525   -0.082566024    1.804865956
   43 1   5     0.057361720904      0.047788370   -0.347063357   -1.788498891
   44 1   5     0.057361720904     -1.356677732   -0.589916651   -0.697463098
   45 1   5     0.036606329336     -0.135216672   -4.314534946    0.732822402
   46 1   5     0.036606329336      1.198979108   -4.892656955   -0.258392036
   47 1   5     0.027003581479      1.203386830   -5.863370959    2.637293405
   48 1   5     0.027003581479     -0.266296109   -6.240934534    1.765103261
   49 1   5     0.026531412109      0.655253510   -8.072242269    0.918592905
   50 1   5     0.026531412109      1.722760119   -7.084988865   -0.097528208
   51 1   5     0.036606329336      5.801317926   -0.857591925   -0.776946737
   52 1   5     0.036606329336      5.198590924    0.618074763    0.018707832
   53 1   5     0.027003581479      5.374335989    0.305028920   -3.048770867
   54 1   5     0.027003581479      5.102448269    1.818039413   -2.111732460
   55 1   5     0.026531412109      7.622489395    0.041544821   -1.944021486
   56 1   5     0.026531412109      7.368636006    1.590595406   -1.068953156
   57 1   5     0.026264765143      7.554857654    1.295611521   -4.133835810
   58 1   5     0.026264765143      7.438944168    2.836360785   -3.208614208
   59 1   5     0.036606329336     -3.372128686    1.943078517   -0.923428237
   60 1   5     0.036606329336     -2.867330528    3.297009940   -1.959224091
   61 1   5     0.027003581479     -4.106299753    0.729926648   -3.181323723
   62 1   5     0.027003581479     -5.117548406    1.917946774   -2.335197974
   63 1   5     0.026531412109     -3.627658886    2.213389074   -4.980765247
   64 1   5     0.026531412109     -3.971173015    3.687533499   -4.018075987
   65 1   5     0.026264765143     -6.124663852    1.669138663   -4.904092549
   66 1   5     0.026264765143     -6.386656742    3.190735098   -3.984729675
   67 1   5     0.036606329336     -0.697387406    0.785997539    4.941213019
   68 1   5     0.036606329336      0.852192236    0.186861820    5.575755780
   69 1   5     0.027003581479      0.237528589    3.215796636    5.327725341
   70 1   5     0.027003581479     -0.410194913    2.221401479    6.647147955
   71 1   5     0.026531412109      2.456287354    3.099516051    6.133918834
   72 1   5     0.026531412109      2.208551549    1.543979109    6.989527816
   73 1   5     0.026264765143      0.906085595    4.184098170    7.898475986
   74 1   5     0.026264765143      0.867688121    2.595251752    8.735581368
   75 1   5     0.022977513104      9.789397431    2.357644915   -3.889749143
   76 1   5     0.022977513104      9.639623452    2.322281579   -2.096080050
   77 1   5     0.022977513104      9.744904662    0.781182714   -3.027961833
   78 1   5     0.022977513104     -6.972401616    3.545033471   -6.313268961
   79 1   5     0.022977513104     -5.500124290    4.510440564   -5.944778065
   80 1   5     0.022977513104     -5.364147017    2.964118903   -6.876824204
   81 1   5     0.022977513104      2.465008184    4.055162077    9.836443150
   82 1   5     0.022977513104      3.377597304    2.725677364    9.036723323
   83 1   5     0.022977513104      3.336346618    4.377428937    8.294747029
   84 1   1    -0.065276132122      3.249271638   -9.069414479    1.014389790
   85 1   5     0.026264765143      3.422986615   -7.070520596    1.801523125
   86 1   5     0.026264765143      2.325645987   -8.156038556    2.729312484
   87 1   5     0.022977513104      2.509562339   -9.895615561    0.944215878
   88 1   5     0.022977513104      3.594749503   -8.807708284   -0.008414881
   89 1   5     0.022977513104      4.123253814   -9.432717416    1.595298245

Bonds

1   1   2 1     # C_3 C_3 (1)
2   1   3 1     # C_3 C_3 (1)
3   1   4 1     # C_3 C_3 (1)
4   1   5 1     # C_3 C_3 (1)
5   2   6 5     # O_3 C_3 (1)
6   2   7 3     # O_3 C_3 (1)
7   2   8 2     # O_3 C_3 (1)
8   2   9 4     # O_3 C_3 (1)
9   3   8 10     # O_3 C_2 (1)
10   3   6 11     # O_3 C_2 (1)
11   3   7 12     # O_3 C_2 (1)
12   3   9 13     # O_3 C_2 (1)
13   4   14 12     # O_2 C_2 (2)
14   4   15 10     # O_2 C_2 (2)
15   4   16 13     # O_2 C_2 (2)
16   4   17 11     # O_2 C_2 (2)
17   5   12 18     # C_2 C_3 (1)
18   1   19 18     # C_3 C_3 (1)
19   1   20 19     # C_3 C_3 (1)
20   1   21 20     # C_3 C_3 (1)
21   5   10 22     # C_2 C_3 (1)
22   1   23 22     # C_3 C_3 (1)
23   1   24 23     # C_3 C_3 (1)
24   1   25 24     # C_3 C_3 (1)
25   1   26 25     # C_3 C_3 (1)
26   5   11 27     # C_2 C_3 (1)
27   1   28 27     # C_3 C_3 (1)
28   1   29 28     # C_3 C_3 (1)
29   1   30 29     # C_3 C_3 (1)
30   1   31 30     # C_3 C_3 (1)
31   5   13 32     # C_2 C_3 (1)
32   1   33 32     # C_3 C_3 (1)
33   1   34 33     # C_3 C_3 (1)
34   1   35 34     # C_3 C_3 (1)
35   1   36 35     # C_3 C_3 (1)
36   6   2 37     # C_3 H_ (1)
37   6   2 38     # C_3 H_ (1)
38   6   3 39     # C_3 H_ (1)
39   6   3 40     # C_3 H_ (1)
40   6   4 41     # C_3 H_ (1)
41   6   4 42     # C_3 H_ (1)
42   6   5 43     # C_3 H_ (1)
43   6   5 44     # C_3 H_ (1)
44   6   18 45     # C_3 H_ (1)
45   6   18 46     # C_3 H_ (1)
46   6   19 47     # C_3 H_ (1)
47   6   19 48     # C_3 H_ (1)
48   6   20 49     # C_3 H_ (1)
49   6   20 50     # C_3 H_ (1)
50   6   22 51     # C_3 H_ (1)
51   6   22 52     # C_3 H_ (1)
52   6   23 53     # C_3 H_ (1)
53   6   23 54     # C_3 H_ (1)
54   6   24 55     # C_3 H_ (1)
55   6   24 56     # C_3 H_ (1)
56   6   25 57     # C_3 H_ (1)
57   6   25 58     # C_3 H_ (1)
58   6   27 59     # C_3 H_ (1)
59   6   27 60     # C_3 H_ (1)
60   6   28 61     # C_3 H_ (1)
61   6   28 62     # C_3 H_ (1)
62   6   29 63     # C_3 H_ (1)
63   6   29 64     # C_3 H_ (1)
64   6   30 65     # C_3 H_ (1)
65   6   30 66     # C_3 H_ (1)
66   6   32 67     # C_3 H_ (1)
67   6   32 68     # C_3 H_ (1)
68   6   33 69     # C_3 H_ (1)
69   6   33 70     # C_3 H_ (1)
70   6   34 71     # C_3 H_ (1)
71   6   34 72     # C_3 H_ (1)
72   6   35 73     # C_3 H_ (1)
73   6   35 74     # C_3 H_ (1)
74   6   26 75     # C_3 H_ (1)
75   6   26 76     # C_3 H_ (1)
76   6   26 77     # C_3 H_ (1)
77   6   31 78     # C_3 H_ (1)
78   6   31 79     # C_3 H_ (1)
79   6   31 80     # C_3 H_ (1)
80   6   36 81     # C_3 H_ (1)
81   6   36 82     # C_3 H_ (1)
82   6   36 83     # C_3 H_ (1)
83   1   84 21     # C_3 C_3 (1)
84   6   21 85     # C_3 H_ (1)
85   6   21 86     # C_3 H_ (1)
86   6   84 87     # C_3 H_ (1)
87   6   84 88     # C_3 H_ (1)
88   6   84 89     # C_3 H_ (1)

Angles

1   1   2 1 3     # C_3 C_3 C_3
2   1   2 1 4     # C_3 C_3 C_3
3   1   2 1 5     # C_3 C_3 C_3
4   1   3 1 4     # C_3 C_3 C_3
5   1   3 1 5     # C_3 C_3 C_3
6   1   4 1 5     # C_3 C_3 C_3
7   2   1 2 8     # C_3 C_3 O_3
8   3   1 2 37     # C_3 C_3 H_
9   3   1 2 38     # C_3 C_3 H_
10   4   8 2 37     # O_3 C_3 H_
11   4   8 2 38     # O_3 C_3 H_
12   5   37 2 38     # H_ C_3 H_
13   2   1 3 7     # C_3 C_3 O_3
14   3   1 3 39     # C_3 C_3 H_
15   3   1 3 40     # C_3 C_3 H_
16   4   7 3 39     # O_3 C_3 H_
17   4   7 3 40     # O_3 C_3 H_
18   5   39 3 40     # H_ C_3 H_
19   2   1 4 9     # C_3 C_3 O_3
20   3   1 4 41     # C_3 C_3 H_
21   3   1 4 42     # C_3 C_3 H_
22   4   9 4 41     # O_3 C_3 H_
23   4   9 4 42     # O_3 C_3 H_
24   5   41 4 42     # H_ C_3 H_
25   2   1 5 6     # C_3 C_3 O_3
26   3   1 5 43     # C_3 C_3 H_
27   3   1 5 44     # C_3 C_3 H_
28   4   6 5 43     # O_3 C_3 H_
29   4   6 5 44     # O_3 C_3 H_
30   5   43 5 44     # H_ C_3 H_
31   6   5 6 11     # C_3 O_3 C_2
32   6   3 7 12     # C_3 O_3 C_2
33   6   2 8 10     # C_3 O_3 C_2
34   6   4 9 13     # C_3 O_3 C_2
35   7   8 10 15     # O_3 C_2 O_2
36   8   8 10 22     # O_3 C_2 C_3
37   9   15 10 22     # O_2 C_2 C_3
38   7   6 11 17     # O_3 C_2 O_2
39   8   6 11 27     # O_3 C_2 C_3
40   9   17 11 27     # O_2 C_2 C_3
41   7   7 12 14     # O_3 C_2 O_2
42   8   7 12 18     # O_3 C_2 C_3
43   9   14 12 18     # O_2 C_2 C_3
44   7   9 13 16     # O_3 C_2 O_2
45   8   9 13 32     # O_3 C_2 C_3
46   9   16 13 32     # O_2 C_2 C_3
47   10   12 18 19     # C_2 C_3 C_3
48   11   12 18 45     # C_2 C_3 H_
49   11   12 18 46     # C_2 C_3 H_
50   3   19 18 45     # C_3 C_3 H_
51   3   19 18 46     # C_3 C_3 H_
52   5   45 18 46     # H_ C_3 H_
53   1   18 19 20     # C_3 C_3 C_3
54   3   18 19 47     # C_3 C_3 H_
55   3   18 19 48     # C_3 C_3 H_
56   3   20 19 47     # C_3 C_3 H_
57   3   20 19 48     # C_3 C_3 H_
58   5   47 19 48     # H_ C_3 H_
59   1   19 20 21     # C_3 C_3 C_3
60   3   19 20 49     # C_3 C_3 H_
61   3   19 20 50     # C_3 C_3 H_
62   3   21 20 49     # C_3 C_3 H_
63   3   21 20 50     # C_3 C_3 H_
64   5   49 20 50     # H_ C_3 H_
65   1   20 21 84     # C_3 C_3 C_3
66   3   20 21 85     # C_3 C_3 H_
67   3   20 21 86     # C_3 C_3 H_
68   3   84 21 85     # C_3 C_3 H_
69   3   84 21 86     # C_3 C_3 H_
70   5   85 21 86     # H_ C_3 H_
71   10   10 22 23     # C_2 C_3 C_3
72   11   10 22 51     # C_2 C_3 H_
73   11   10 22 52     # C_2 C_3 H_
74   3   23 22 51     # C_3 C_3 H_
75   3   23 22 52     # C_3 C_3 H_
76   5   51 22 52     # H_ C_3 H_
77   1   22 23 24     # C_3 C_3 C_3
78   3   22 23 53     # C_3 C_3 H_
79   3   22 23 54     # C_3 C_3 H_
80   3   24 23 53     # C_3 C_3 H_
81   3   24 23 54     # C_3 C_3 H_
82   5   53 23 54     # H_ C_3 H_
83   1   23 24 25     # C_3 C_3 C_3
84   3   23 24 55     # C_3 C_3 H_
85   3   23 24 56     # C_3 C_3 H_
86   3   25 24 55     # C_3 C_3 H_
87   3   25 24 56     # C_3 C_3 H_
88   5   55 24 56     # H_ C_3 H_
89   1   24 25 26     # C_3 C_3 C_3
90   3   24 25 57     # C_3 C_3 H_
91   3   24 25 58     # C_3 C_3 H_
92   3   26 25 57     # C_3 C_3 H_
93   3   26 25 58     # C_3 C_3 H_
94   5   57 25 58     # H_ C_3 H_
95   3   25 26 75     # C_3 C_3 H_
96   3   25 26 76     # C_3 C_3 H_
97   3   25 26 77     # C_3 C_3 H_
98   5   75 26 76     # H_ C_3 H_
99   5   75 26 77     # H_ C_3 H_
100   5   76 26 77     # H_ C_3 H_
101   10   11 27 28     # C_2 C_3 C_3
102   11   11 27 59     # C_2 C_3 H_
103   11   11 27 60     # C_2 C_3 H_
104   3   28 27 59     # C_3 C_3 H_
105   3   28 27 60     # C_3 C_3 H_
106   5   59 27 60     # H_ C_3 H_
107   1   27 28 29     # C_3 C_3 C_3
108   3   27 28 61     # C_3 C_3 H_
109   3   27 28 62     # C_3 C_3 H_
110   3   29 28 61     # C_3 C_3 H_
111   3   29 28 62     # C_3 C_3 H_
112   5   61 28 62     # H_ C_3 H_
113   1   28 29 30     # C_3 C_3 C_3
114   3   28 29 63     # C_3 C_3 H_
115   3   28 29 64     # C_3 C_3 H_
116   3   30 29 63     # C_3 C_3 H_
117   3   30 29 64     # C_3 C_3 H_
118   5   63 29 64     # H_ C_3 H_
119   1   29 30 31     # C_3 C_3 C_3
120   3   29 30 65     # C_3 C_3 H_
121   3   29 30 66     # C_3 C_3 H_
122   3   31 30 65     # C_3 C_3 H_
123   3   31 30 66     # C_3 C_3 H_
124   5   65 30 66     # H_ C_3 H_
125   3   30 31 78     # C_3 C_3 H_
126   3   30 31 79     # C_3 C_3 H_
127   3   30 31 80     # C_3 C_3 H_
128   5   78 31 79     # H_ C_3 H_
129   5   78 31 80     # H_ C_3 H_
130   5   79 31 80     # H_ C_3 H_
131   10   13 32 33     # C_2 C_3 C_3
132   11   13 32 67     # C_2 C_3 H_
133   11   13 32 68     # C_2 C_3 H_
134   3   33 32 67     # C_3 C_3 H_
135   3   33 32 68     # C_3 C_3 H_
136   5   67 32 68     # H_ C_3 H_
137   1   32 33 34     # C_3 C_3 C_3
138   3   32 33 69     # C_3 C_3 H_
139   3   32 33 70     # C_3 C_3 H_
140   3   34 33 69     # C_3 C_3 H_
141   3   34 33 70     # C_3 C_3 H_
142   5   69 33 70     # H_ C_3 H_
143   1   33 34 35     # C_3 C_3 C_3
144   3   33 34 71     # C_3 C_3 H_
145   3   33 34 72     # C_3 C_3 H_
146   3   35 34 71     # C_3 C_3 H_
147   3   35 34 72     # C_3 C_3 H_
148   5   71 34 72     # H_ C_3 H_
149   1   34 35 36     # C_3 C_3 C_3
150   3   34 35 73     # C_3 C_3 H_
151   3   34 35 74     # C_3 C_3 H_
152   3   36 35 73     # C_3 C_3 H_
153   3   36 35 74     # C_3 C_3 H_
154   5   73 35 74     # H_ C_3 H_
155   3   35 36 81     # C_3 C_3 H_
156   3   35 36 82     # C_3 C_3 H_
157   3   35 36 83     # C_3 C_3 H_
158   5   81 36 82     # H_ C_3 H_
159   5   81 36 83     # H_ C_3 H_
160   5   82 36 83     # H_ C_3 H_
161   3   21 84 87     # C_3 C_3 H_
162   3   21 84 88     # C_3 C_3 H_
163   3   21 84 89     # C_3 C_3 H_
164   5   87 84 88     # H_ C_3 H_
165   5   87 84 89     # H_ C_3 H_
166   5   88 84 89     # H_ C_3 H_

Dihedrals

1   1   8 2 1 3     # O_3 C_3 C_3 C_3
2   1   8 2 1 4     # O_3 C_3 C_3 C_3
3   1   8 2 1 5     # O_3 C_3 C_3 C_3
4   2   37 2 1 3     # H_ C_3 C_3 C_3
5   2   37 2 1 4     # H_ C_3 C_3 C_3
6   2   37 2 1 5     # H_ C_3 C_3 C_3
7   2   38 2 1 3     # H_ C_3 C_3 C_3
8   2   38 2 1 4     # H_ C_3 C_3 C_3
9   2   38 2 1 5     # H_ C_3 C_3 C_3
10   1   7 3 1 2     # O_3 C_3 C_3 C_3
11   1   7 3 1 4     # O_3 C_3 C_3 C_3
12   1   7 3 1 5     # O_3 C_3 C_3 C_3
13   2   39 3 1 2     # H_ C_3 C_3 C_3
14   2   39 3 1 4     # H_ C_3 C_3 C_3
15   2   39 3 1 5     # H_ C_3 C_3 C_3
16   2   40 3 1 2     # H_ C_3 C_3 C_3
17   2   40 3 1 4     # H_ C_3 C_3 C_3
18   2   40 3 1 5     # H_ C_3 C_3 C_3
19   1   9 4 1 2     # O_3 C_3 C_3 C_3
20   1   9 4 1 3     # O_3 C_3 C_3 C_3
21   1   9 4 1 5     # O_3 C_3 C_3 C_3
22   2   41 4 1 2     # H_ C_3 C_3 C_3
23   2   41 4 1 3     # H_ C_3 C_3 C_3
24   2   41 4 1 5     # H_ C_3 C_3 C_3
25   2   42 4 1 2     # H_ C_3 C_3 C_3
26   2   42 4 1 3     # H_ C_3 C_3 C_3
27   2   42 4 1 5     # H_ C_3 C_3 C_3
28   1   6 5 1 2     # O_3 C_3 C_3 C_3
29   1   6 5 1 3     # O_3 C_3 C_3 C_3
30   1   6 5 1 4     # O_3 C_3 C_3 C_3
31   2   43 5 1 2     # H_ C_3 C_3 C_3
32   2   43 5 1 3     # H_ C_3 C_3 C_3
33   2   43 5 1 4     # H_ C_3 C_3 C_3
34   2   44 5 1 2     # H_ C_3 C_3 C_3
35   2   44 5 1 3     # H_ C_3 C_3 C_3
36   2   44 5 1 4     # H_ C_3 C_3 C_3
37   3   11 6 5 1     # C_2 O_3 C_3 C_3
38   4   11 6 5 43     # C_2 O_3 C_3 H_
39   4   11 6 5 44     # C_2 O_3 C_3 H_
40   3   12 7 3 1     # C_2 O_3 C_3 C_3
41   4   12 7 3 39     # C_2 O_3 C_3 H_
42   4   12 7 3 40     # C_2 O_3 C_3 H_
43   3   10 8 2 1     # C_2 O_3 C_3 C_3
44   4   10 8 2 37     # C_2 O_3 C_3 H_
45   4   10 8 2 38     # C_2 O_3 C_3 H_
46   3   13 9 4 1     # C_2 O_3 C_3 C_3
47   4   13 9 4 41     # C_2 O_3 C_3 H_
48   4   13 9 4 42     # C_2 O_3 C_3 H_
49   5   2 8 10 15     # C_3 O_3 C_2 O_2
50   6   2 8 10 22     # C_3 O_3 C_2 C_3
51   5   5 6 11 17     # C_3 O_3 C_2 O_2
52   6   5 6 11 27     # C_3 O_3 C_2 C_3
53   5   3 7 12 14     # C_3 O_3 C_2 O_2
54   6   3 7 12 18     # C_3 O_3 C_2 C_3
55   5   4 9 13 16     # C_3 O_3 C_2 O_2
56   6   4 9 13 32     # C_3 O_3 C_2 C_3
57   7   7 12 18 19     # O_3 C_2 C_3 C_3
58   8   14 12 18 19     # O_2 C_2 C_3 C_3
59   9   7 12 18 45     # O_3 C_2 C_3 H_
60   10   14 12 18 45     # O_2 C_2 C_3 H_
61   9   7 12 18 46     # O_3 C_2 C_3 H_
62   10   14 12 18 46     # O_2 C_2 C_3 H_
63   11   20 19 18 12     # C_3 C_3 C_3 C_2
64   12   20 19 18 45     # C_3 C_3 C_3 H_
65   12   20 19 18 46     # C_3 C_3 C_3 H_
66   13   47 19 18 12     # H_ C_3 C_3 C_2
67   14   47 19 18 45     # H_ C_3 C_3 H_
68   14   47 19 18 46     # H_ C_3 C_3 H_
69   13   48 19 18 12     # H_ C_3 C_3 C_2
70   14   48 19 18 45     # H_ C_3 C_3 H_
71   14   48 19 18 46     # H_ C_3 C_3 H_
72   15   21 20 19 18     # C_3 C_3 C_3 C_3
73   12   21 20 19 47     # C_3 C_3 C_3 H_
74   12   21 20 19 48     # C_3 C_3 C_3 H_
75   2   49 20 19 18     # H_ C_3 C_3 C_3
76   14   49 20 19 47     # H_ C_3 C_3 H_
77   14   49 20 19 48     # H_ C_3 C_3 H_
78   2   50 20 19 18     # H_ C_3 C_3 C_3
79   14   50 20 19 47     # H_ C_3 C_3 H_
80   14   50 20 19 48     # H_ C_3 C_3 H_
81   15   84 21 20 19     # C_3 C_3 C_3 C_3
82   12   84 21 20 49     # C_3 C_3 C_3 H_
83   12   84 21 20 50     # C_3 C_3 C_3 H_
84   2   85 21 20 19     # H_ C_3 C_3 C_3
85   14   85 21 20 49     # H_ C_3 C_3 H_
86   14   85 21 20 50     # H_ C_3 C_3 H_
87   2   86 21 20 19     # H_ C_3 C_3 C_3
88   14   86 21 20 49     # H_ C_3 C_3 H_
89   14   86 21 20 50     # H_ C_3 C_3 H_
90   7   8 10 22 23     # O_3 C_2 C_3 C_3
91   8   15 10 22 23     # O_2 C_2 C_3 C_3
92   9   8 10 22 51     # O_3 C_2 C_3 H_
93   10   15 10 22 51     # O_2 C_2 C_3 H_
94   9   8 10 22 52     # O_3 C_2 C_3 H_
95   10   15 10 22 52     # O_2 C_2 C_3 H_
96   11   24 23 22 10     # C_3 C_3 C_3 C_2
97   12   24 23 22 51     # C_3 C_3 C_3 H_
98   12   24 23 22 52     # C_3 C_3 C_3 H_
99   13   53 23 22 10     # H_ C_3 C_3 C_2
100   14   53 23 22 51     # H_ C_3 C_3 H_
101   14   53 23 22 52     # H_ C_3 C_3 H_
102   13   54 23 22 10     # H_ C_3 C_3 C_2
103   14   54 23 22 51     # H_ C_3 C_3 H_
104   14   54 23 22 52     # H_ C_3 C_3 H_
105   15   25 24 23 22     # C_3 C_3 C_3 C_3
106   12   25 24 23 53     # C_3 C_3 C_3 H_
107   12   25 24 23 54     # C_3 C_3 C_3 H_
108   2   55 24 23 22     # H_ C_3 C_3 C_3
109   14   55 24 23 53     # H_ C_3 C_3 H_
110   14   55 24 23 54     # H_ C_3 C_3 H_
111   2   56 24 23 22     # H_ C_3 C_3 C_3
112   14   56 24 23 53     # H_ C_3 C_3 H_
113   14   56 24 23 54     # H_ C_3 C_3 H_
114   15   26 25 24 23     # C_3 C_3 C_3 C_3
115   12   26 25 24 55     # C_3 C_3 C_3 H_
116   12   26 25 24 56     # C_3 C_3 C_3 H_
117   2   57 25 24 23     # H_ C_3 C_3 C_3
118   14   57 25 24 55     # H_ C_3 C_3 H_
119   14   57 25 24 56     # H_ C_3 C_3 H_
120   2   58 25 24 23     # H_ C_3 C_3 C_3
121   14   58 25 24 55     # H_ C_3 C_3 H_
122   14   58 25 24 56     # H_ C_3 C_3 H_
123   2   75 26 25 24     # H_ C_3 C_3 C_3
124   14   75 26 25 57     # H_ C_3 C_3 H_
125   14   75 26 25 58     # H_ C_3 C_3 H_
126   2   76 26 25 24     # H_ C_3 C_3 C_3
127   14   76 26 25 57     # H_ C_3 C_3 H_
128   14   76 26 25 58     # H_ C_3 C_3 H_
129   2   77 26 25 24     # H_ C_3 C_3 C_3
130   14   77 26 25 57     # H_ C_3 C_3 H_
131   14   77 26 25 58     # H_ C_3 C_3 H_
132   7   6 11 27 28     # O_3 C_2 C_3 C_3
133   8   17 11 27 28     # O_2 C_2 C_3 C_3
134   9   6 11 27 59     # O_3 C_2 C_3 H_
135   10   17 11 27 59     # O_2 C_2 C_3 H_
136   9   6 11 27 60     # O_3 C_2 C_3 H_
137   10   17 11 27 60     # O_2 C_2 C_3 H_
138   11   29 28 27 11     # C_3 C_3 C_3 C_2
139   12   29 28 27 59     # C_3 C_3 C_3 H_
140   12   29 28 27 60     # C_3 C_3 C_3 H_
141   13   61 28 27 11     # H_ C_3 C_3 C_2
142   14   61 28 27 59     # H_ C_3 C_3 H_
143   14   61 28 27 60     # H_ C_3 C_3 H_
144   13   62 28 27 11     # H_ C_3 C_3 C_2
145   14   62 28 27 59     # H_ C_3 C_3 H_
146   14   62 28 27 60     # H_ C_3 C_3 H_
147   15   30 29 28 27     # C_3 C_3 C_3 C_3
148   12   30 29 28 61     # C_3 C_3 C_3 H_
149   12   30 29 28 62     # C_3 C_3 C_3 H_
150   2   63 29 28 27     # H_ C_3 C_3 C_3
151   14   63 29 28 61     # H_ C_3 C_3 H_
152   14   63 29 28 62     # H_ C_3 C_3 H_
153   2   64 29 28 27     # H_ C_3 C_3 C_3
154   14   64 29 28 61     # H_ C_3 C_3 H_
155   14   64 29 28 62     # H_ C_3 C_3 H_
156   15   31 30 29 28     # C_3 C_3 C_3 C_3
157   12   31 30 29 63     # C_3 C_3 C_3 H_
158   12   31 30 29 64     # C_3 C_3 C_3 H_
159   2   65 30 29 28     # H_ C_3 C_3 C_3
160   14   65 30 29 63     # H_ C_3 C_3 H_
161   14   65 30 29 64     # H_ C_3 C_3 H_
162   2   66 30 29 28     # H_ C_3 C_3 C_3
163   14   66 30 29 63     # H_ C_3 C_3 H_
164   14   66 30 29 64     # H_ C_3 C_3 H_
165   2   78 31 30 29     # H_ C_3 C_3 C_3
166   14   78 31 30 65     # H_ C_3 C_3 H_
167   14   78 31 30 66     # H_ C_3 C_3 H_
168   2   79 31 30 29     # H_ C_3 C_3 C_3
169   14   79 31 30 65     # H_ C_3 C_3 H_
170   14   79 31 30 66     # H_ C_3 C_3 H_
171   2   80 31 30 29     # H_ C_3 C_3 C_3
172   14   80 31 30 65     # H_ C_3 C_3 H_
173   14   80 31 30 66     # H_ C_3 C_3 H_
174   7   9 13 32 33     # O_3 C_2 C_3 C_3
175   8   16 13 32 33     # O_2 C_2 C_3 C_3
176   9   9 13 32 67     # O_3 C_2 C_3 H_
177   10   16 13 32 67     # O_2 C_2 C_3 H_
178   9   9 13 32 68     # O_3 C_2 C_3 H_
179   10   16 13 32 68     # O_2 C_2 C_3 H_
180   11   34 33 32 13     # C_3 C_3 C_3 C_2
181   12   34 33 32 67     # C_3 C_3 C_3 H_
182   12   34 33 32 68     # C_3 C_3 C_3 H_
183   13   69 33 32 13     # H_ C_3 C_3 C_2
184   14   69 33 32 67     # H_ C_3 C_3 H_
185   14   69 33 32 68     # H_ C_3 C_3 H_
186   13   70 33 32 13     # H_ C_3 C_3 C_2
187   14   70 33 32 67     # H_ C_3 C_3 H_
188   14   70 33 32 68     # H_ C_3 C_3 H_
189   15   35 34 33 32     # C_3 C_3 C_3 C_3
190   12   35 34 33 69     # C_3 C_3 C_3 H_
191   12   35 34 33 70     # C_3 C_3 C_3 H_
192   2   71 34 33 32     # H_ C_3 C_3 C_3
193   14   71 34 33 69     # H_ C_3 C_3 H_
194   14   71 34 33 70     # H_ C_3 C_3 H_
195   2   72 34 33 32     # H_ C_3 C_3 C_3
196   14   72 34 33 69     # H_ C_3 C_3 H_
197   14   72 34 33 70     # H_ C_3 C_3 H_
198   15   36 35 34 33     # C_3 C_3 C_3 C_3
199   12   36 35 34 71     # C_3 C_3 C_3 H_
200   12   36 35 34 72     # C_3 C_3 C_3 H_
201   2   73 35 34 33     # H_ C_3 C_3 C_3
202   14   73 35 34 71     # H_ C_3 C_3 H_
203   14   73 35 34 72     # H_ C_3 C_3 H_
204   2   74 35 34 33     # H_ C_3 C_3 C_3
205   14   74 35 34 71     # H_ C_3 C_3 H_
206   14   74 35 34 72     # H_ C_3 C_3 H_
207   2   81 36 35 34     # H_ C_3 C_3 C_3
208   14   81 36 35 73     # H_ C_3 C_3 H_
209   14   81 36 35 74     # H_ C_3 C_3 H_
210   2   82 36 35 34     # H_ C_3 C_3 C_3
211   14   82 36 35 73     # H_ C_3 C_3 H_
212   14   82 36 35 74     # H_ C_3 C_3 H_
213   2   83 36 35 34     # H_ C_3 C_3 C_3
214   14   83 36 35 73     # H_ C_3 C_3 H_
215   14   83 36 35 74     # H_ C_3 C_3 H_
216   2   87 84 21 20     # H_ C_3 C_3 C_3
217   14   87 84 21 85     # H_ C_3 C_3 H_
218   14   87 84 21 86     # H_ C_3 C_3 H_
219   2   88 84 21 20     # H_ C_3 C_3 C_3
220   14   88 84 21 85     # H_ C_3 C_3 H_
221   14   88 84 21 86     # H_ C_3 C_3 H_
222   2   89 84 21 20     # H_ C_3 C_3 C_3
223   14   89 84 21 85     # H_ C_3 C_3 H_
224   14   89 84 21 86     # H_ C_3 C_3 H_

Impropers

1   1   10 8 22 15     # C_2 O_3 C_3 O_2
2   1   11 6 27 17     # C_2 O_3 C_3 O_2
3   1   12 7 18 14     # C_2 O_3 C_3 O_2
4   1   13 9 32 16     # C_2 O_3 C_3 O_2

Pair Coeffs

    1    0.095100000000000   3.472990    # C_3
    2    0.095700000000000   3.033154    # O_3
    4    0.095700000000000   3.033154    # O_2
    3    0.095100000000000   3.472990    # C_2
    5    0.015200000000000   2.846421    # H_

Bond Coeffs

1   350.000000 1.530000     # C_3 C_3
2   350.000000 1.420000     # O_3 C_3
3   350.000000 1.320000     # O_3 C_2
4   700.000000 1.220000     # O_2 C_2
5   350.000000 1.430000     # C_2 C_3
6   350.000000 1.090000     # C_3 H_

Angle Coeffs

1   50.000000 109.470000     # X C_3 X (C_3 C_3 C_3)
2   50.000000 109.470000     # X C_3 X (C_3 C_3 O_3)
3   50.000000 109.470000     # X C_3 X (C_3 C_3 H_)
4   50.000000 109.470000     # X C_3 X (O_3 C_3 H_)
5   50.000000 109.470000     # X C_3 X (H_ C_3 H_)
6   50.000000 104.510000     # X O_3 X (C_3 O_3 C_2)
7   50.000000 120.000000     # X C_2 X (O_3 C_2 O_2)
8   50.000000 120.000000     # X C_2 X (O_3 C_2 C_3)
9   50.000000 120.000000     # X C_2 X (O_2 C_2 C_3)
10   50.000000 109.470000     # X C_3 X (C_2 C_3 C_3)
11   50.000000 109.470000     # X C_3 X (C_2 C_3 H_)

Dihedral Coeffs #Harmonic

1 0.1111 1 3     # X C_3 C_3 X (O_3 C_3 C_3 C_3)
2 0.1111 1 3     # X C_3 C_3 X (H_ C_3 C_3 C_3)
3 0.3333 1 3     # X O_3 C_3 X (C_2 O_3 C_3 C_3)
4 0.3333 1 3     # X O_3 C_3 X (C_2 O_3 C_3 H_)
5 0.5 -1 2     # X O_3 C_2 X (O_2 C_2 O_3 C_3)
6 0.5 -1 2     # X O_3 C_2 X (C_3 C_2 O_3 C_3)
7 0.1667 1 3     # X C_2 C_3 X (C_3 C_3 C_2 O_3)
8 0.0833 -1 6     # O_2 C_2 C_3 X (C_3 C_3 C_2 O_2)
9 0.1667 1 3     # X C_2 C_3 X (H_ C_3 C_2 O_3)
10 0.0833 -1 6    # O_2 C_2 C_3 X (H_ C_3 C_2 O_2)
11 0.1111 1 3     # X C_3 C_3 X (C_3 C_3 C_3 C_2)
12 0.1111 1 3     # X C_3 C_3 X (C_3 C_3 C_3 H_)
13 0.1111 1 3     # X C_3 C_3 X (H_ C_3 C_3 C_2)
14 0.1111 1 3     # X C_3 C_3 X (H_ C_3 C_3 H_)
15 0.1111 1 3     # X C_3 C_3 X (C_3 C_3 C_3 C_3)

Improper Coeffs

1   20.000000 0.000000     # X C_2 X X
